|===============================================================================
|
|  DFTB+ development version (commit: d61a5eeb, base: 22.1)
|
|  Copyright (C) 2006 - 2022  DFTB+ developers group
|
|===============================================================================
|
|  When publishing results obtained with DFTB+, please cite the following
|  reference:
|
|  * DFTB+, a software package for efficient approximate density functional
|    theory based atomistic simulations, J. Chem. Phys. 152, 124101 (2020).
|    [doi: 10.1063/1.5143190]
|
|  You should also cite additional publications crediting the parametrization
|  data you use. Please consult the documentation of the SK-files for the
|  references.
|
|===============================================================================

Reading input file 'dftb_in.hsd'
Parser version: 11

--------------------------------------------------------------------------------
***  Converting input from parser version  3 to parser version 11 ...
WARNING!
-> Keyword moved to Analysis block.
Path: dftbplusinput/Options/MullikenAnalysis
Line: 31-31 (File: dftb_in.hsd)

WARNING!
-> Keyword moved to Analysis block.
Path: dftbplusinput/Options/AtomResolvedEnergies
Line: 33-33 (File: dftb_in.hsd)

WARNING!
-> Adding legacy step size for finite difference differentiation
Path: dftbplusinput/Hamiltonian/DFTB/Differentiation

***  Done.

Reading SK-files:
../../slko/Li-Li.skf
../../slko/Li-Cl.skf
../../slko/Cl-Cl.skf
Done.


Processed input in HSD format written to 'dftb_pin.hsd'

Starting initialization...
--------------------------------------------------------------------------------
WARNING!
-> Dipole printed for extended system : value printed is not well defined
OpenMP threads:              12
Chosen random seed:          609471069
Mode:                        Static calculation
Self consistent charges:     Yes
SCC-tolerance:                 0.100000E-05
Max. scc iterations:                    100
Shell resolved Hubbard:      No
Spin polarisation:           No
Nr. of up electrons:            16.000000
Nr. of down electrons:          16.000000
Periodic boundaries:         Yes
Electronic solver:           Relatively robust
Mixer:                       Broyden mixer
Mixing parameter:                  0.200000
Maximal SCC-cycles:                     100
Nr. of chrg. vec. in memory:            100
Electronic temperature:              0.950045E-03 H      0.258520E-01 eV
Initial charges:             Set automatically (system chrg:   0.000E+00)
Included shells:            Li:  s, p
                            Cl:  s, p, d
K-points and weights:           1:  0.166667  0.166667  0.166667     0.074074
                                2:  0.166667  0.166667  0.500000     0.074074
                                3:  0.166667  0.166667  0.833333     0.074074
                                4:  0.166667  0.500000  0.166667     0.074074
                                5:  0.166667  0.500000  0.500000     0.074074
                                6:  0.166667  0.500000  0.833333     0.074074
                                7:  0.166667  0.833333  0.166667     0.074074
                                8:  0.166667  0.833333  0.500000     0.074074
                                9:  0.166667  0.833333  0.833333     0.074074
                               10:  0.500000  0.166667  0.166667     0.074074
                               11:  0.500000  0.166667  0.500000     0.074074
                               12:  0.500000  0.166667  0.833333     0.074074
                               13:  0.500000  0.500000  0.166667     0.074074
                               14:  0.500000  0.500000  0.500000     0.037037

K-points in absolute space:     1:  0.018017  0.018017  0.018017
                                2:  0.018017  0.018017  0.054052
                                3:  0.018017  0.018017  0.090086
                                4:  0.018017  0.054052  0.018017
                                5:  0.018017  0.054052  0.054052
                                6:  0.018017  0.054052  0.090086
                                7:  0.018017  0.090086  0.018017
                                8:  0.018017  0.090086  0.054052
                                9:  0.018017  0.090086  0.090086
                               10:  0.054052  0.018017  0.018017
                               11:  0.054052  0.018017  0.054052
                               12:  0.054052  0.018017  0.090086
                               13:  0.054052  0.054052  0.018017
                               14:  0.054052  0.054052  0.054052

Extra options:
                             Mulliken analysis

--------------------------------------------------------------------------------

***  Geometry step: 0

 iSCC Total electronic   Diff electronic      SCC error    
    1    0.00000000E+00    0.00000000E+00    0.12806136E+00
    2   -0.14034837E+02   -0.14034837E+02    0.89101858E-01
    3   -0.14035167E+02   -0.33029924E-03    0.15294161E-03
    4   -0.14035479E+02   -0.31166093E-03    0.18781514E-06
>> Charges saved for restart in charges.bin

Total Energy:                      -14.0354788990 H         -381.9248 eV
Extrapolated to 0K:                -14.0361152259 H         -381.9421 eV
Total Mermin free energy:          -14.0367515528 H         -381.9594 eV
Force related energy:              -14.0367515528 H         -381.9594 eV


--------------------------------------------------------------------------------
DFTB+ running times                          cpu [s]             wall clock [s]
--------------------------------------------------------------------------------
Pre-SCC initialisation                 +       0.02 (  2.6%)       0.00 (  4.3%)
SCC                                    +       0.72 ( 97.3%)       0.09 ( 94.6%)
--------------------------------------------------------------------------------
Missing                                +       0.00 (  0.1%)       0.00 (  1.1%)
Total                                  =       0.74 (100.0%)       0.09 (100.0%)
--------------------------------------------------------------------------------
