|===============================================================================
|
|  DFTB+ development version (commit: d61a5eeb, base: 22.1)
|
|  Copyright (C) 2006 - 2022  DFTB+ developers group
|
|===============================================================================
|
|  When publishing results obtained with DFTB+, please cite the following
|  reference:
|
|  * DFTB+, a software package for efficient approximate density functional
|    theory based atomistic simulations, J. Chem. Phys. 152, 124101 (2020).
|    [doi: 10.1063/1.5143190]
|
|  You should also cite additional publications crediting the parametrization
|  data you use. Please consult the documentation of the SK-files for the
|  references.
|
|===============================================================================

Reading input file 'dftb_in.hsd'
Parser version: 11

--------------------------------------------------------------------------------
***  Converting input from parser version  3 to parser version 11 ...
WARNING!
-> Keyword moved to Analysis block.
Path: dftbplusinput/Options/MullikenAnalysis
Line: 34-34 (File: dftb_in.hsd)

WARNING!
-> Keyword moved to Analysis block.
Path: dftbplusinput/Options/AtomResolvedEnergies
Line: 36-36 (File: dftb_in.hsd)

WARNING!
-> Keyword moved to Analysis block.
Path: dftbplusinput/Options/CalculateForces
Line: 33-33 (File: dftb_in.hsd)

WARNING!
-> Adding legacy step size for finite difference differentiation
Path: dftbplusinput/Hamiltonian/DFTB/Differentiation

***  Done.

Reading SK-files:
../../slko/Li-Li.skf
../../slko/Li-P.skf
../../slko/Li-S.skf
../../slko/Li-Cl.skf
../../slko/P-P.skf
../../slko/P-S.skf
../../slko/P-Cl.skf
../../slko/S-S.skf
../../slko/S-Cl.skf
../../slko/Cl-Cl.skf
Done.


Processed input in HSD format written to 'dftb_pin.hsd'

Starting initialization...
--------------------------------------------------------------------------------
WARNING!
-> Dipole printed for extended system : value printed is not well defined
OpenMP threads:              12
Chosen random seed:          607595131
Mode:                        Static calculation
Self consistent charges:     Yes
SCC-tolerance:                 0.100000E-09
Max. scc iterations:                    100
Shell resolved Hubbard:      No
Spin polarisation:           No
Nr. of up electrons:            96.000000
Nr. of down electrons:          96.000000
Periodic boundaries:         Yes
Electronic solver:           Relatively robust
Mixer:                       Broyden mixer
Mixing parameter:                  0.200000
Maximal SCC-cycles:                     100
Nr. of chrg. vec. in memory:            100
Electronic temperature:              0.950045E-03 H      0.258520E-01 eV
Initial charges:             Set automatically (system chrg:   0.000E+00)
Included shells:            Li:  s, p
                             P:  s, p, d
                             S:  s, p, d
                            Cl:  s, p, d
K-points and weights:           1:  0.100000  0.100000  0.100000     0.016000
                                2:  0.100000  0.100000  0.300000     0.016000
                                3:  0.100000  0.100000  0.500000     0.016000
                                4:  0.100000  0.100000  0.700000     0.016000
                                5:  0.100000  0.100000  0.900000     0.016000
                                6:  0.100000  0.300000  0.100000     0.016000
                                7:  0.100000  0.300000  0.300000     0.016000
                                8:  0.100000  0.300000  0.500000     0.016000
                                9:  0.100000  0.300000  0.700000     0.016000
                               10:  0.100000  0.300000  0.900000     0.016000
                               11:  0.100000  0.500000  0.100000     0.016000
                               12:  0.100000  0.500000  0.300000     0.016000
                               13:  0.100000  0.500000  0.500000     0.016000
                               14:  0.100000  0.500000  0.700000     0.016000
                               15:  0.100000  0.500000  0.900000     0.016000
                               16:  0.100000  0.700000  0.100000     0.016000
                               17:  0.100000  0.700000  0.300000     0.016000
                               18:  0.100000  0.700000  0.500000     0.016000
                               19:  0.100000  0.700000  0.700000     0.016000
                               20:  0.100000  0.700000  0.900000     0.016000
                               21:  0.100000  0.900000  0.100000     0.016000
                               22:  0.100000  0.900000  0.300000     0.016000
                               23:  0.100000  0.900000  0.500000     0.016000
                               24:  0.100000  0.900000  0.700000     0.016000
                               25:  0.100000  0.900000  0.900000     0.016000
                               26:  0.300000  0.100000  0.100000     0.016000
                               27:  0.300000  0.100000  0.300000     0.016000
                               28:  0.300000  0.100000  0.500000     0.016000
                               29:  0.300000  0.100000  0.700000     0.016000
                               30:  0.300000  0.100000  0.900000     0.016000
                               31:  0.300000  0.300000  0.100000     0.016000
                               32:  0.300000  0.300000  0.300000     0.016000
                               33:  0.300000  0.300000  0.500000     0.016000
                               34:  0.300000  0.300000  0.700000     0.016000
                               35:  0.300000  0.300000  0.900000     0.016000
                               36:  0.300000  0.500000  0.100000     0.016000
                               37:  0.300000  0.500000  0.300000     0.016000
                               38:  0.300000  0.500000  0.500000     0.016000
                               39:  0.300000  0.500000  0.700000     0.016000
                               40:  0.300000  0.500000  0.900000     0.016000
                               41:  0.300000  0.700000  0.100000     0.016000
                               42:  0.300000  0.700000  0.300000     0.016000
                               43:  0.300000  0.700000  0.500000     0.016000
                               44:  0.300000  0.700000  0.700000     0.016000
                               45:  0.300000  0.700000  0.900000     0.016000
                               46:  0.300000  0.900000  0.100000     0.016000
                               47:  0.300000  0.900000  0.300000     0.016000
                               48:  0.300000  0.900000  0.500000     0.016000
                               49:  0.300000  0.900000  0.700000     0.016000
                               50:  0.300000  0.900000  0.900000     0.016000
                               51:  0.500000  0.100000  0.100000     0.016000
                               52:  0.500000  0.100000  0.300000     0.016000
                               53:  0.500000  0.100000  0.500000     0.016000
                               54:  0.500000  0.100000  0.700000     0.016000
                               55:  0.500000  0.100000  0.900000     0.016000
                               56:  0.500000  0.300000  0.100000     0.016000
                               57:  0.500000  0.300000  0.300000     0.016000
                               58:  0.500000  0.300000  0.500000     0.016000
                               59:  0.500000  0.300000  0.700000     0.016000
                               60:  0.500000  0.300000  0.900000     0.016000
                               61:  0.500000  0.500000  0.100000     0.016000
                               62:  0.500000  0.500000  0.300000     0.016000
                               63:  0.500000  0.500000  0.500000     0.008000

K-points in absolute space:     1:  0.005191  0.005191  0.005191
                                2:  0.005191  0.005191  0.015572
                                3:  0.005191  0.005191  0.025953
                                4:  0.005191  0.005191  0.036334
                                5:  0.005191  0.005191  0.046715
                                6:  0.005191  0.015572  0.005191
                                7:  0.005191  0.015572  0.015572
                                8:  0.005191  0.015572  0.025953
                                9:  0.005191  0.015572  0.036334
                               10:  0.005191  0.015572  0.046715
                               11:  0.005191  0.025953  0.005191
                               12:  0.005191  0.025953  0.015572
                               13:  0.005191  0.025953  0.025953
                               14:  0.005191  0.025953  0.036334
                               15:  0.005191  0.025953  0.046715
                               16:  0.005191  0.036334  0.005191
                               17:  0.005191  0.036334  0.015572
                               18:  0.005191  0.036334  0.025953
                               19:  0.005191  0.036334  0.036334
                               20:  0.005191  0.036334  0.046715
                               21:  0.005191  0.046715  0.005191
                               22:  0.005191  0.046715  0.015572
                               23:  0.005191  0.046715  0.025953
                               24:  0.005191  0.046715  0.036334
                               25:  0.005191  0.046715  0.046715
                               26:  0.015572  0.005191  0.005191
                               27:  0.015572  0.005191  0.015572
                               28:  0.015572  0.005191  0.025953
                               29:  0.015572  0.005191  0.036334
                               30:  0.015572  0.005191  0.046715
                               31:  0.015572  0.015572  0.005191
                               32:  0.015572  0.015572  0.015572
                               33:  0.015572  0.015572  0.025953
                               34:  0.015572  0.015572  0.036334
                               35:  0.015572  0.015572  0.046715
                               36:  0.015572  0.025953  0.005191
                               37:  0.015572  0.025953  0.015572
                               38:  0.015572  0.025953  0.025953
                               39:  0.015572  0.025953  0.036334
                               40:  0.015572  0.025953  0.046715
                               41:  0.015572  0.036334  0.005191
                               42:  0.015572  0.036334  0.015572
                               43:  0.015572  0.036334  0.025953
                               44:  0.015572  0.036334  0.036334
                               45:  0.015572  0.036334  0.046715
                               46:  0.015572  0.046715  0.005191
                               47:  0.015572  0.046715  0.015572
                               48:  0.015572  0.046715  0.025953
                               49:  0.015572  0.046715  0.036334
                               50:  0.015572  0.046715  0.046715
                               51:  0.025953  0.005191  0.005191
                               52:  0.025953  0.005191  0.015572
                               53:  0.025953  0.005191  0.025953
                               54:  0.025953  0.005191  0.036334
                               55:  0.025953  0.005191  0.046715
                               56:  0.025953  0.015572  0.005191
                               57:  0.025953  0.015572  0.015572
                               58:  0.025953  0.015572  0.025953
                               59:  0.025953  0.015572  0.036334
                               60:  0.025953  0.015572  0.046715
                               61:  0.025953  0.025953  0.005191
                               62:  0.025953  0.025953  0.015572
                               63:  0.025953  0.025953  0.025953

Extra options:
                             Mulliken analysis
                             Force calculation
Force type                   original

--------------------------------------------------------------------------------

***  Geometry step: 0

 iSCC Total electronic   Diff electronic      SCC error    
    1    0.00000000E+00    0.00000000E+00    0.70012668E+00
    2   -0.74567181E+02   -0.74567181E+02    0.38844911E+00
    3   -0.74633417E+02   -0.66235348E-01    0.58977713E-01
    4   -0.74661306E+02   -0.27889328E-01    0.21398549E-01
    5   -0.74661921E+02   -0.61476473E-03    0.71754391E-02
    6   -0.74661961E+02   -0.40264136E-04    0.27623859E-02
    7   -0.74661971E+02   -0.94652882E-05    0.13859551E-02
    8   -0.74661971E+02   -0.40109452E-06    0.36068891E-03
    9   -0.74661971E+02   -0.58214184E-07    0.13707358E-03
   10   -0.74661971E+02   -0.18019421E-07    0.43890897E-04
   11   -0.74661971E+02   -0.26650611E-08    0.19162398E-04
   12   -0.74661971E+02   -0.11016255E-09    0.31619320E-05
   13   -0.74661971E+02   -0.28876457E-10    0.65890691E-06
   14   -0.74661971E+02   -0.15205615E-11    0.35078473E-06
   15   -0.74661971E+02   -0.71054274E-13    0.22328292E-06
   16   -0.74661971E+02    0.00000000E+00    0.31432664E-07
   17   -0.74661971E+02    0.14210855E-13    0.48901772E-08
   18   -0.74661971E+02    0.00000000E+00    0.20889003E-08
   19   -0.74661971E+02    0.00000000E+00    0.11091025E-08
   20   -0.74661971E+02    0.00000000E+00    0.19605728E-09
>> Charges saved for restart in charges.bin
   21   -0.74661971E+02   -0.14210855E-13    0.38397507E-10
>> Charges saved for restart in charges.bin

Total Energy:                      -74.6619709813 H        -2031.6556 eV
Extrapolated to 0K:                -74.6619709813 H        -2031.6556 eV
Total Mermin free energy:          -74.6619709813 H        -2031.6556 eV
Force related energy:              -74.6619709813 H        -2031.6556 eV

Volume:                              0.715073E+04 au^3   0.105963E+04 A^3
Pressure:                           -0.355689E-03 au    -0.104647E+11 Pa

--------------------------------------------------------------------------------
DFTB+ running times                          cpu [s]             wall clock [s]
--------------------------------------------------------------------------------
Pre-SCC initialisation                 +       0.02 (  0.0%)       0.01 (  0.0%)
SCC                                    +     213.23 ( 97.8%)     121.66 ( 99.7%)
Post-SCC processing                    +       4.80 (  2.2%)       0.41 (  0.3%)
Post-geometry optimisation             +       0.04 (  0.0%)       0.00 (  0.0%)
--------------------------------------------------------------------------------
Missing                                +       0.00 (  0.0%)       0.00 (  0.0%)
Total                                  =     218.09 (100.0%)     122.08 (100.0%)
--------------------------------------------------------------------------------
