|===============================================================================
|
|  DFTB+ development version (commit: d61a5eeb, base: 22.1)
|
|  Copyright (C) 2006 - 2022  DFTB+ developers group
|
|===============================================================================
|
|  When publishing results obtained with DFTB+, please cite the following
|  reference:
|
|  * DFTB+, a software package for efficient approximate density functional
|    theory based atomistic simulations, J. Chem. Phys. 152, 124101 (2020).
|    [doi: 10.1063/1.5143190]
|
|  You should also cite additional publications crediting the parametrization
|  data you use. Please consult the documentation of the SK-files for the
|  references.
|
|===============================================================================

Reading input file 'dftb_in.hsd'
Parser version: 11

--------------------------------------------------------------------------------
***  Converting input from parser version  3 to parser version 11 ...
WARNING!
-> Keyword moved to Analysis block.
Path: dftbplusinput/Options/MullikenAnalysis
Line: 34-34 (File: dftb_in.hsd)

WARNING!
-> Keyword moved to Analysis block.
Path: dftbplusinput/Options/AtomResolvedEnergies
Line: 36-36 (File: dftb_in.hsd)

WARNING!
-> Keyword moved to Analysis block.
Path: dftbplusinput/Options/CalculateForces
Line: 33-33 (File: dftb_in.hsd)

WARNING!
-> Adding legacy step size for finite difference differentiation
Path: dftbplusinput/Hamiltonian/DFTB/Differentiation

***  Done.

Reading SK-files:
../../slko/Li-Li.skf
../../slko/Li-P.skf
../../slko/Li-S.skf
../../slko/Li-Cl.skf
../../slko/P-P.skf
../../slko/P-S.skf
../../slko/P-Cl.skf
../../slko/S-S.skf
../../slko/S-Cl.skf
../../slko/Cl-Cl.skf
Done.


Processed input in HSD format written to 'dftb_pin.hsd'

Starting initialization...
--------------------------------------------------------------------------------
WARNING!
-> Dipole printed for extended system : value printed is not well defined
OpenMP threads:              12
Chosen random seed:          606739183
Mode:                        Static calculation
Self consistent charges:     Yes
SCC-tolerance:                 0.100000E-09
Max. scc iterations:                    100
Shell resolved Hubbard:      No
Spin polarisation:           No
Nr. of up electrons:            96.000000
Nr. of down electrons:          96.000000
Periodic boundaries:         Yes
Electronic solver:           Relatively robust
Mixer:                       Broyden mixer
Mixing parameter:                  0.200000
Maximal SCC-cycles:                     100
Nr. of chrg. vec. in memory:            100
Electronic temperature:              0.950045E-03 H      0.258520E-01 eV
Initial charges:             Set automatically (system chrg:   0.000E+00)
Included shells:            Li:  s, p
                             P:  s, p, d
                             S:  s, p, d
                            Cl:  s, p, d
K-points and weights:           1:  0.100000  0.100000  0.100000     0.016000
                                2:  0.100000  0.100000  0.300000     0.016000
                                3:  0.100000  0.100000  0.500000     0.016000
                                4:  0.100000  0.100000  0.700000     0.016000
                                5:  0.100000  0.100000  0.900000     0.016000
                                6:  0.100000  0.300000  0.100000     0.016000
                                7:  0.100000  0.300000  0.300000     0.016000
                                8:  0.100000  0.300000  0.500000     0.016000
                                9:  0.100000  0.300000  0.700000     0.016000
                               10:  0.100000  0.300000  0.900000     0.016000
                               11:  0.100000  0.500000  0.100000     0.016000
                               12:  0.100000  0.500000  0.300000     0.016000
                               13:  0.100000  0.500000  0.500000     0.016000
                               14:  0.100000  0.500000  0.700000     0.016000
                               15:  0.100000  0.500000  0.900000     0.016000
                               16:  0.100000  0.700000  0.100000     0.016000
                               17:  0.100000  0.700000  0.300000     0.016000
                               18:  0.100000  0.700000  0.500000     0.016000
                               19:  0.100000  0.700000  0.700000     0.016000
                               20:  0.100000  0.700000  0.900000     0.016000
                               21:  0.100000  0.900000  0.100000     0.016000
                               22:  0.100000  0.900000  0.300000     0.016000
                               23:  0.100000  0.900000  0.500000     0.016000
                               24:  0.100000  0.900000  0.700000     0.016000
                               25:  0.100000  0.900000  0.900000     0.016000
                               26:  0.300000  0.100000  0.100000     0.016000
                               27:  0.300000  0.100000  0.300000     0.016000
                               28:  0.300000  0.100000  0.500000     0.016000
                               29:  0.300000  0.100000  0.700000     0.016000
                               30:  0.300000  0.100000  0.900000     0.016000
                               31:  0.300000  0.300000  0.100000     0.016000
                               32:  0.300000  0.300000  0.300000     0.016000
                               33:  0.300000  0.300000  0.500000     0.016000
                               34:  0.300000  0.300000  0.700000     0.016000
                               35:  0.300000  0.300000  0.900000     0.016000
                               36:  0.300000  0.500000  0.100000     0.016000
                               37:  0.300000  0.500000  0.300000     0.016000
                               38:  0.300000  0.500000  0.500000     0.016000
                               39:  0.300000  0.500000  0.700000     0.016000
                               40:  0.300000  0.500000  0.900000     0.016000
                               41:  0.300000  0.700000  0.100000     0.016000
                               42:  0.300000  0.700000  0.300000     0.016000
                               43:  0.300000  0.700000  0.500000     0.016000
                               44:  0.300000  0.700000  0.700000     0.016000
                               45:  0.300000  0.700000  0.900000     0.016000
                               46:  0.300000  0.900000  0.100000     0.016000
                               47:  0.300000  0.900000  0.300000     0.016000
                               48:  0.300000  0.900000  0.500000     0.016000
                               49:  0.300000  0.900000  0.700000     0.016000
                               50:  0.300000  0.900000  0.900000     0.016000
                               51:  0.500000  0.100000  0.100000     0.016000
                               52:  0.500000  0.100000  0.300000     0.016000
                               53:  0.500000  0.100000  0.500000     0.016000
                               54:  0.500000  0.100000  0.700000     0.016000
                               55:  0.500000  0.100000  0.900000     0.016000
                               56:  0.500000  0.300000  0.100000     0.016000
                               57:  0.500000  0.300000  0.300000     0.016000
                               58:  0.500000  0.300000  0.500000     0.016000
                               59:  0.500000  0.300000  0.700000     0.016000
                               60:  0.500000  0.300000  0.900000     0.016000
                               61:  0.500000  0.500000  0.100000     0.016000
                               62:  0.500000  0.500000  0.300000     0.016000
                               63:  0.500000  0.500000  0.500000     0.008000

K-points in absolute space:     1:  0.005569  0.005569  0.005569
                                2:  0.005569  0.005569  0.016707
                                3:  0.005569  0.005569  0.027845
                                4:  0.005569  0.005569  0.038983
                                5:  0.005569  0.005569  0.050122
                                6:  0.005569  0.016707  0.005569
                                7:  0.005569  0.016707  0.016707
                                8:  0.005569  0.016707  0.027845
                                9:  0.005569  0.016707  0.038983
                               10:  0.005569  0.016707  0.050122
                               11:  0.005569  0.027845  0.005569
                               12:  0.005569  0.027845  0.016707
                               13:  0.005569  0.027845  0.027845
                               14:  0.005569  0.027845  0.038983
                               15:  0.005569  0.027845  0.050122
                               16:  0.005569  0.038983  0.005569
                               17:  0.005569  0.038983  0.016707
                               18:  0.005569  0.038983  0.027845
                               19:  0.005569  0.038983  0.038983
                               20:  0.005569  0.038983  0.050122
                               21:  0.005569  0.050122  0.005569
                               22:  0.005569  0.050122  0.016707
                               23:  0.005569  0.050122  0.027845
                               24:  0.005569  0.050122  0.038983
                               25:  0.005569  0.050122  0.050122
                               26:  0.016707  0.005569  0.005569
                               27:  0.016707  0.005569  0.016707
                               28:  0.016707  0.005569  0.027845
                               29:  0.016707  0.005569  0.038983
                               30:  0.016707  0.005569  0.050122
                               31:  0.016707  0.016707  0.005569
                               32:  0.016707  0.016707  0.016707
                               33:  0.016707  0.016707  0.027845
                               34:  0.016707  0.016707  0.038983
                               35:  0.016707  0.016707  0.050122
                               36:  0.016707  0.027845  0.005569
                               37:  0.016707  0.027845  0.016707
                               38:  0.016707  0.027845  0.027845
                               39:  0.016707  0.027845  0.038983
                               40:  0.016707  0.027845  0.050122
                               41:  0.016707  0.038983  0.005569
                               42:  0.016707  0.038983  0.016707
                               43:  0.016707  0.038983  0.027845
                               44:  0.016707  0.038983  0.038983
                               45:  0.016707  0.038983  0.050122
                               46:  0.016707  0.050122  0.005569
                               47:  0.016707  0.050122  0.016707
                               48:  0.016707  0.050122  0.027845
                               49:  0.016707  0.050122  0.038983
                               50:  0.016707  0.050122  0.050122
                               51:  0.027845  0.005569  0.005569
                               52:  0.027845  0.005569  0.016707
                               53:  0.027845  0.005569  0.027845
                               54:  0.027845  0.005569  0.038983
                               55:  0.027845  0.005569  0.050122
                               56:  0.027845  0.016707  0.005569
                               57:  0.027845  0.016707  0.016707
                               58:  0.027845  0.016707  0.027845
                               59:  0.027845  0.016707  0.038983
                               60:  0.027845  0.016707  0.050122
                               61:  0.027845  0.027845  0.005569
                               62:  0.027845  0.027845  0.016707
                               63:  0.027845  0.027845  0.027845

Extra options:
                             Mulliken analysis
                             Force calculation
Force type                   original

--------------------------------------------------------------------------------

***  Geometry step: 0

 iSCC Total electronic   Diff electronic      SCC error    
    1    0.00000000E+00    0.00000000E+00    0.76184329E+00
    2   -0.74973952E+02   -0.74973952E+02    0.45152374E+00
    3   -0.75032869E+02   -0.58916520E-01    0.46884385E-01
    4   -0.75058233E+02   -0.25364711E-01    0.15288677E-01
    5   -0.75058741E+02   -0.50763446E-03    0.77997643E-02
    6   -0.75058753E+02   -0.11553554E-04    0.25668805E-02
    7   -0.75058753E+02   -0.76385285E-06    0.47537352E-03
    8   -0.75058755E+02   -0.11084173E-05    0.18749747E-03
    9   -0.75058755E+02   -0.54324332E-07    0.11291473E-03
   10   -0.75058755E+02   -0.10779360E-08    0.23036193E-04
   11   -0.75058755E+02   -0.19838353E-10    0.48096327E-05
   12   -0.75058755E+02   -0.14446755E-09    0.22028213E-05
   13   -0.75058755E+02   -0.26147973E-11    0.69332637E-06
   14   -0.75058755E+02   -0.27000624E-12    0.25572953E-06
   15   -0.75058755E+02   -0.14210855E-13    0.80703678E-07
   16   -0.75058755E+02    0.14210855E-13    0.27461160E-07
   17   -0.75058755E+02   -0.42632564E-13    0.44805937E-08
   18   -0.75058755E+02    0.28421709E-13    0.14614197E-08
   19   -0.75058755E+02    0.00000000E+00    0.97654662E-09
   20   -0.75058755E+02    0.14210855E-13    0.49124327E-09
>> Charges saved for restart in charges.bin
   21   -0.75058755E+02   -0.14210855E-13    0.35520920E-10
>> Charges saved for restart in charges.bin

Total Energy:                      -75.0587545973 H        -2042.4526 eV
Extrapolated to 0K:                -75.0587545973 H        -2042.4526 eV
Total Mermin free energy:          -75.0587545973 H        -2042.4526 eV
Force related energy:              -75.0587545973 H        -2042.4526 eV

Volume:                              0.578965E+04 au^3   0.857938E+03 A^3
Pressure:                           -0.205149E-03 au    -0.603570E+10 Pa

--------------------------------------------------------------------------------
DFTB+ running times                          cpu [s]             wall clock [s]
--------------------------------------------------------------------------------
Pre-SCC initialisation                 +       0.06 (  0.0%)       0.01 (  0.0%)
SCC                                    +     214.80 ( 97.4%)     121.56 ( 99.6%)
Post-SCC processing                    +       5.73 (  2.6%)       0.48 (  0.4%)
--------------------------------------------------------------------------------
Missing                                +       0.00 (  0.0%)       0.00 (  0.0%)
Total                                  =     220.59 (100.0%)     122.06 (100.0%)
--------------------------------------------------------------------------------
