|===============================================================================
|
|  DFTB+ development version (commit: d61a5eeb, base: 22.1)
|
|  Copyright (C) 2006 - 2022  DFTB+ developers group
|
|===============================================================================
|
|  When publishing results obtained with DFTB+, please cite the following
|  reference:
|
|  * DFTB+, a software package for efficient approximate density functional
|    theory based atomistic simulations, J. Chem. Phys. 152, 124101 (2020).
|    [doi: 10.1063/1.5143190]
|
|  You should also cite additional publications crediting the parametrization
|  data you use. Please consult the documentation of the SK-files for the
|  references.
|
|===============================================================================

Reading input file 'dftb_in.hsd'
Parser version: 11

--------------------------------------------------------------------------------
***  Converting input from parser version  3 to parser version 11 ...
WARNING!
-> Keyword moved to Analysis block.
Path: dftbplusinput/Options/MullikenAnalysis
Line: 34-34 (File: dftb_in.hsd)

WARNING!
-> Keyword moved to Analysis block.
Path: dftbplusinput/Options/AtomResolvedEnergies
Line: 36-36 (File: dftb_in.hsd)

WARNING!
-> Keyword moved to Analysis block.
Path: dftbplusinput/Options/CalculateForces
Line: 33-33 (File: dftb_in.hsd)

WARNING!
-> Adding legacy step size for finite difference differentiation
Path: dftbplusinput/Hamiltonian/DFTB/Differentiation

***  Done.

Reading SK-files:
../../slko/Li-Li.skf
../../slko/Li-P.skf
../../slko/Li-S.skf
../../slko/Li-Cl.skf
../../slko/P-P.skf
../../slko/P-S.skf
../../slko/P-Cl.skf
../../slko/S-S.skf
../../slko/S-Cl.skf
../../slko/Cl-Cl.skf
Done.


Processed input in HSD format written to 'dftb_pin.hsd'

Starting initialization...
--------------------------------------------------------------------------------
WARNING!
-> Dipole printed for extended system : value printed is not well defined
OpenMP threads:              12
Chosen random seed:          607717255
Mode:                        Static calculation
Self consistent charges:     Yes
SCC-tolerance:                 0.100000E-09
Max. scc iterations:                    100
Shell resolved Hubbard:      No
Spin polarisation:           No
Nr. of up electrons:            96.000000
Nr. of down electrons:          96.000000
Periodic boundaries:         Yes
Electronic solver:           Relatively robust
Mixer:                       Broyden mixer
Mixing parameter:                  0.200000
Maximal SCC-cycles:                     100
Nr. of chrg. vec. in memory:            100
Electronic temperature:              0.950045E-03 H      0.258520E-01 eV
Initial charges:             Set automatically (system chrg:   0.000E+00)
Included shells:            Li:  s, p
                             P:  s, p, d
                             S:  s, p, d
                            Cl:  s, p, d
K-points and weights:           1:  0.100000  0.100000  0.100000     0.016000
                                2:  0.100000  0.100000  0.300000     0.016000
                                3:  0.100000  0.100000  0.500000     0.016000
                                4:  0.100000  0.100000  0.700000     0.016000
                                5:  0.100000  0.100000  0.900000     0.016000
                                6:  0.100000  0.300000  0.100000     0.016000
                                7:  0.100000  0.300000  0.300000     0.016000
                                8:  0.100000  0.300000  0.500000     0.016000
                                9:  0.100000  0.300000  0.700000     0.016000
                               10:  0.100000  0.300000  0.900000     0.016000
                               11:  0.100000  0.500000  0.100000     0.016000
                               12:  0.100000  0.500000  0.300000     0.016000
                               13:  0.100000  0.500000  0.500000     0.016000
                               14:  0.100000  0.500000  0.700000     0.016000
                               15:  0.100000  0.500000  0.900000     0.016000
                               16:  0.100000  0.700000  0.100000     0.016000
                               17:  0.100000  0.700000  0.300000     0.016000
                               18:  0.100000  0.700000  0.500000     0.016000
                               19:  0.100000  0.700000  0.700000     0.016000
                               20:  0.100000  0.700000  0.900000     0.016000
                               21:  0.100000  0.900000  0.100000     0.016000
                               22:  0.100000  0.900000  0.300000     0.016000
                               23:  0.100000  0.900000  0.500000     0.016000
                               24:  0.100000  0.900000  0.700000     0.016000
                               25:  0.100000  0.900000  0.900000     0.016000
                               26:  0.300000  0.100000  0.100000     0.016000
                               27:  0.300000  0.100000  0.300000     0.016000
                               28:  0.300000  0.100000  0.500000     0.016000
                               29:  0.300000  0.100000  0.700000     0.016000
                               30:  0.300000  0.100000  0.900000     0.016000
                               31:  0.300000  0.300000  0.100000     0.016000
                               32:  0.300000  0.300000  0.300000     0.016000
                               33:  0.300000  0.300000  0.500000     0.016000
                               34:  0.300000  0.300000  0.700000     0.016000
                               35:  0.300000  0.300000  0.900000     0.016000
                               36:  0.300000  0.500000  0.100000     0.016000
                               37:  0.300000  0.500000  0.300000     0.016000
                               38:  0.300000  0.500000  0.500000     0.016000
                               39:  0.300000  0.500000  0.700000     0.016000
                               40:  0.300000  0.500000  0.900000     0.016000
                               41:  0.300000  0.700000  0.100000     0.016000
                               42:  0.300000  0.700000  0.300000     0.016000
                               43:  0.300000  0.700000  0.500000     0.016000
                               44:  0.300000  0.700000  0.700000     0.016000
                               45:  0.300000  0.700000  0.900000     0.016000
                               46:  0.300000  0.900000  0.100000     0.016000
                               47:  0.300000  0.900000  0.300000     0.016000
                               48:  0.300000  0.900000  0.500000     0.016000
                               49:  0.300000  0.900000  0.700000     0.016000
                               50:  0.300000  0.900000  0.900000     0.016000
                               51:  0.500000  0.100000  0.100000     0.016000
                               52:  0.500000  0.100000  0.300000     0.016000
                               53:  0.500000  0.100000  0.500000     0.016000
                               54:  0.500000  0.100000  0.700000     0.016000
                               55:  0.500000  0.100000  0.900000     0.016000
                               56:  0.500000  0.300000  0.100000     0.016000
                               57:  0.500000  0.300000  0.300000     0.016000
                               58:  0.500000  0.300000  0.500000     0.016000
                               59:  0.500000  0.300000  0.700000     0.016000
                               60:  0.500000  0.300000  0.900000     0.016000
                               61:  0.500000  0.500000  0.100000     0.016000
                               62:  0.500000  0.500000  0.300000     0.016000
                               63:  0.500000  0.500000  0.500000     0.008000

K-points in absolute space:     1:  0.005141  0.005141  0.005141
                                2:  0.005141  0.005141  0.015422
                                3:  0.005141  0.005141  0.025703
                                4:  0.005141  0.005141  0.035985
                                5:  0.005141  0.005141  0.046266
                                6:  0.005141  0.015422  0.005141
                                7:  0.005141  0.015422  0.015422
                                8:  0.005141  0.015422  0.025703
                                9:  0.005141  0.015422  0.035985
                               10:  0.005141  0.015422  0.046266
                               11:  0.005141  0.025703  0.005141
                               12:  0.005141  0.025703  0.015422
                               13:  0.005141  0.025703  0.025703
                               14:  0.005141  0.025703  0.035985
                               15:  0.005141  0.025703  0.046266
                               16:  0.005141  0.035985  0.005141
                               17:  0.005141  0.035985  0.015422
                               18:  0.005141  0.035985  0.025703
                               19:  0.005141  0.035985  0.035985
                               20:  0.005141  0.035985  0.046266
                               21:  0.005141  0.046266  0.005141
                               22:  0.005141  0.046266  0.015422
                               23:  0.005141  0.046266  0.025703
                               24:  0.005141  0.046266  0.035985
                               25:  0.005141  0.046266  0.046266
                               26:  0.015422  0.005141  0.005141
                               27:  0.015422  0.005141  0.015422
                               28:  0.015422  0.005141  0.025703
                               29:  0.015422  0.005141  0.035985
                               30:  0.015422  0.005141  0.046266
                               31:  0.015422  0.015422  0.005141
                               32:  0.015422  0.015422  0.015422
                               33:  0.015422  0.015422  0.025703
                               34:  0.015422  0.015422  0.035985
                               35:  0.015422  0.015422  0.046266
                               36:  0.015422  0.025703  0.005141
                               37:  0.015422  0.025703  0.015422
                               38:  0.015422  0.025703  0.025703
                               39:  0.015422  0.025703  0.035985
                               40:  0.015422  0.025703  0.046266
                               41:  0.015422  0.035985  0.005141
                               42:  0.015422  0.035985  0.015422
                               43:  0.015422  0.035985  0.025703
                               44:  0.015422  0.035985  0.035985
                               45:  0.015422  0.035985  0.046266
                               46:  0.015422  0.046266  0.005141
                               47:  0.015422  0.046266  0.015422
                               48:  0.015422  0.046266  0.025703
                               49:  0.015422  0.046266  0.035985
                               50:  0.015422  0.046266  0.046266
                               51:  0.025703  0.005141  0.005141
                               52:  0.025703  0.005141  0.015422
                               53:  0.025703  0.005141  0.025703
                               54:  0.025703  0.005141  0.035985
                               55:  0.025703  0.005141  0.046266
                               56:  0.025703  0.015422  0.005141
                               57:  0.025703  0.015422  0.015422
                               58:  0.025703  0.015422  0.025703
                               59:  0.025703  0.015422  0.035985
                               60:  0.025703  0.015422  0.046266
                               61:  0.025703  0.025703  0.005141
                               62:  0.025703  0.025703  0.015422
                               63:  0.025703  0.025703  0.025703

Extra options:
                             Mulliken analysis
                             Force calculation
Force type                   original

--------------------------------------------------------------------------------

***  Geometry step: 0

 iSCC Total electronic   Diff electronic      SCC error    
    1    0.00000000E+00    0.00000000E+00    0.68732156E+00
    2   -0.74489578E+02   -0.74489578E+02    0.37682397E+00
    3   -0.74556778E+02   -0.67199498E-01    0.63500401E-01
    4   -0.74585028E+02   -0.28249944E-01    0.21662420E-01
    5   -0.74585774E+02   -0.74636136E-03    0.67087210E-02
    6   -0.74585823E+02   -0.48427474E-04    0.28692924E-02
    7   -0.74585833E+02   -0.98373922E-05    0.14370347E-02
    8   -0.74585833E+02   -0.29374269E-06    0.30773018E-03
    9   -0.74585833E+02   -0.69922848E-07    0.12556140E-03
   10   -0.74585833E+02   -0.15064558E-07    0.45178647E-04
   11   -0.74585833E+02   -0.22547368E-08    0.17828457E-04
   12   -0.74585833E+02   -0.66805228E-10    0.30459370E-05
   13   -0.74585833E+02   -0.29245939E-10    0.67239338E-06
   14   -0.74585833E+02   -0.14779289E-11    0.39457070E-06
   15   -0.74585833E+02   -0.56843419E-13    0.21339876E-06
   16   -0.74585833E+02    0.00000000E+00    0.31754217E-07
   17   -0.74585833E+02   -0.28421709E-13    0.47692470E-08
   18   -0.74585833E+02    0.14210855E-13    0.22363907E-08
   19   -0.74585833E+02    0.14210855E-13    0.89613128E-09
   20   -0.74585833E+02    0.00000000E+00    0.25122926E-09
>> Charges saved for restart in charges.bin
   21   -0.74585833E+02   -0.28421709E-13    0.45375259E-10
>> Charges saved for restart in charges.bin

Total Energy:                      -74.5858329179 H        -2029.5838 eV
Extrapolated to 0K:                -74.5858329179 H        -2029.5838 eV
Total Mermin free energy:          -74.5858329179 H        -2029.5838 eV
Force related energy:              -74.5858329179 H        -2029.5838 eV

Volume:                              0.736103E+04 au^3   0.109079E+04 A^3
Pressure:                           -0.367989E-03 au    -0.108266E+11 Pa

--------------------------------------------------------------------------------
DFTB+ running times                          cpu [s]             wall clock [s]
--------------------------------------------------------------------------------
Pre-SCC initialisation                 +       0.03 (  0.0%)       0.01 (  0.0%)
SCC                                    +     213.85 ( 97.8%)     122.13 ( 99.7%)
Post-SCC processing                    +       4.81 (  2.2%)       0.40 (  0.3%)
--------------------------------------------------------------------------------
Missing                                +       0.00 (  0.0%)       0.00 (  0.0%)
Total                                  =     218.69 (100.0%)     122.54 (100.0%)
--------------------------------------------------------------------------------
