|===============================================================================
|
|  DFTB+ development version (commit: d61a5eeb, base: 22.1)
|
|  Copyright (C) 2006 - 2022  DFTB+ developers group
|
|===============================================================================
|
|  When publishing results obtained with DFTB+, please cite the following
|  reference:
|
|  * DFTB+, a software package for efficient approximate density functional
|    theory based atomistic simulations, J. Chem. Phys. 152, 124101 (2020).
|    [doi: 10.1063/1.5143190]
|
|  You should also cite additional publications crediting the parametrization
|  data you use. Please consult the documentation of the SK-files for the
|  references.
|
|===============================================================================

Reading input file 'dftb_in.hsd'
Parser version: 11

--------------------------------------------------------------------------------
***  Converting input from parser version  3 to parser version 11 ...
WARNING!
-> Keyword moved to Analysis block.
Path: dftbplusinput/Options/MullikenAnalysis
Line: 34-34 (File: dftb_in.hsd)

WARNING!
-> Keyword moved to Analysis block.
Path: dftbplusinput/Options/AtomResolvedEnergies
Line: 36-36 (File: dftb_in.hsd)

WARNING!
-> Keyword moved to Analysis block.
Path: dftbplusinput/Options/CalculateForces
Line: 33-33 (File: dftb_in.hsd)

WARNING!
-> Adding legacy step size for finite difference differentiation
Path: dftbplusinput/Hamiltonian/DFTB/Differentiation

***  Done.

Reading SK-files:
../../slko/Li-Li.skf
../../slko/Li-P.skf
../../slko/Li-S.skf
../../slko/Li-Cl.skf
../../slko/P-P.skf
../../slko/P-S.skf
../../slko/P-Cl.skf
../../slko/S-S.skf
../../slko/S-Cl.skf
../../slko/Cl-Cl.skf
Done.


Processed input in HSD format written to 'dftb_pin.hsd'

Starting initialization...
--------------------------------------------------------------------------------
WARNING!
-> Dipole printed for extended system : value printed is not well defined
OpenMP threads:              12
Chosen random seed:          607350353
Mode:                        Static calculation
Self consistent charges:     Yes
SCC-tolerance:                 0.100000E-09
Max. scc iterations:                    100
Shell resolved Hubbard:      No
Spin polarisation:           No
Nr. of up electrons:            96.000000
Nr. of down electrons:          96.000000
Periodic boundaries:         Yes
Electronic solver:           Relatively robust
Mixer:                       Broyden mixer
Mixing parameter:                  0.200000
Maximal SCC-cycles:                     100
Nr. of chrg. vec. in memory:            100
Electronic temperature:              0.950045E-03 H      0.258520E-01 eV
Initial charges:             Set automatically (system chrg:   0.000E+00)
Included shells:            Li:  s, p
                             P:  s, p, d
                             S:  s, p, d
                            Cl:  s, p, d
K-points and weights:           1:  0.100000  0.100000  0.100000     0.016000
                                2:  0.100000  0.100000  0.300000     0.016000
                                3:  0.100000  0.100000  0.500000     0.016000
                                4:  0.100000  0.100000  0.700000     0.016000
                                5:  0.100000  0.100000  0.900000     0.016000
                                6:  0.100000  0.300000  0.100000     0.016000
                                7:  0.100000  0.300000  0.300000     0.016000
                                8:  0.100000  0.300000  0.500000     0.016000
                                9:  0.100000  0.300000  0.700000     0.016000
                               10:  0.100000  0.300000  0.900000     0.016000
                               11:  0.100000  0.500000  0.100000     0.016000
                               12:  0.100000  0.500000  0.300000     0.016000
                               13:  0.100000  0.500000  0.500000     0.016000
                               14:  0.100000  0.500000  0.700000     0.016000
                               15:  0.100000  0.500000  0.900000     0.016000
                               16:  0.100000  0.700000  0.100000     0.016000
                               17:  0.100000  0.700000  0.300000     0.016000
                               18:  0.100000  0.700000  0.500000     0.016000
                               19:  0.100000  0.700000  0.700000     0.016000
                               20:  0.100000  0.700000  0.900000     0.016000
                               21:  0.100000  0.900000  0.100000     0.016000
                               22:  0.100000  0.900000  0.300000     0.016000
                               23:  0.100000  0.900000  0.500000     0.016000
                               24:  0.100000  0.900000  0.700000     0.016000
                               25:  0.100000  0.900000  0.900000     0.016000
                               26:  0.300000  0.100000  0.100000     0.016000
                               27:  0.300000  0.100000  0.300000     0.016000
                               28:  0.300000  0.100000  0.500000     0.016000
                               29:  0.300000  0.100000  0.700000     0.016000
                               30:  0.300000  0.100000  0.900000     0.016000
                               31:  0.300000  0.300000  0.100000     0.016000
                               32:  0.300000  0.300000  0.300000     0.016000
                               33:  0.300000  0.300000  0.500000     0.016000
                               34:  0.300000  0.300000  0.700000     0.016000
                               35:  0.300000  0.300000  0.900000     0.016000
                               36:  0.300000  0.500000  0.100000     0.016000
                               37:  0.300000  0.500000  0.300000     0.016000
                               38:  0.300000  0.500000  0.500000     0.016000
                               39:  0.300000  0.500000  0.700000     0.016000
                               40:  0.300000  0.500000  0.900000     0.016000
                               41:  0.300000  0.700000  0.100000     0.016000
                               42:  0.300000  0.700000  0.300000     0.016000
                               43:  0.300000  0.700000  0.500000     0.016000
                               44:  0.300000  0.700000  0.700000     0.016000
                               45:  0.300000  0.700000  0.900000     0.016000
                               46:  0.300000  0.900000  0.100000     0.016000
                               47:  0.300000  0.900000  0.300000     0.016000
                               48:  0.300000  0.900000  0.500000     0.016000
                               49:  0.300000  0.900000  0.700000     0.016000
                               50:  0.300000  0.900000  0.900000     0.016000
                               51:  0.500000  0.100000  0.100000     0.016000
                               52:  0.500000  0.100000  0.300000     0.016000
                               53:  0.500000  0.100000  0.500000     0.016000
                               54:  0.500000  0.100000  0.700000     0.016000
                               55:  0.500000  0.100000  0.900000     0.016000
                               56:  0.500000  0.300000  0.100000     0.016000
                               57:  0.500000  0.300000  0.300000     0.016000
                               58:  0.500000  0.300000  0.500000     0.016000
                               59:  0.500000  0.300000  0.700000     0.016000
                               60:  0.500000  0.300000  0.900000     0.016000
                               61:  0.500000  0.500000  0.100000     0.016000
                               62:  0.500000  0.500000  0.300000     0.016000
                               63:  0.500000  0.500000  0.500000     0.008000

K-points in absolute space:     1:  0.005293  0.005293  0.005293
                                2:  0.005293  0.005293  0.015880
                                3:  0.005293  0.005293  0.026467
                                4:  0.005293  0.005293  0.037054
                                5:  0.005293  0.005293  0.047640
                                6:  0.005293  0.015880  0.005293
                                7:  0.005293  0.015880  0.015880
                                8:  0.005293  0.015880  0.026467
                                9:  0.005293  0.015880  0.037054
                               10:  0.005293  0.015880  0.047640
                               11:  0.005293  0.026467  0.005293
                               12:  0.005293  0.026467  0.015880
                               13:  0.005293  0.026467  0.026467
                               14:  0.005293  0.026467  0.037054
                               15:  0.005293  0.026467  0.047640
                               16:  0.005293  0.037054  0.005293
                               17:  0.005293  0.037054  0.015880
                               18:  0.005293  0.037054  0.026467
                               19:  0.005293  0.037054  0.037054
                               20:  0.005293  0.037054  0.047640
                               21:  0.005293  0.047640  0.005293
                               22:  0.005293  0.047640  0.015880
                               23:  0.005293  0.047640  0.026467
                               24:  0.005293  0.047640  0.037054
                               25:  0.005293  0.047640  0.047640
                               26:  0.015880  0.005293  0.005293
                               27:  0.015880  0.005293  0.015880
                               28:  0.015880  0.005293  0.026467
                               29:  0.015880  0.005293  0.037054
                               30:  0.015880  0.005293  0.047640
                               31:  0.015880  0.015880  0.005293
                               32:  0.015880  0.015880  0.015880
                               33:  0.015880  0.015880  0.026467
                               34:  0.015880  0.015880  0.037054
                               35:  0.015880  0.015880  0.047640
                               36:  0.015880  0.026467  0.005293
                               37:  0.015880  0.026467  0.015880
                               38:  0.015880  0.026467  0.026467
                               39:  0.015880  0.026467  0.037054
                               40:  0.015880  0.026467  0.047640
                               41:  0.015880  0.037054  0.005293
                               42:  0.015880  0.037054  0.015880
                               43:  0.015880  0.037054  0.026467
                               44:  0.015880  0.037054  0.037054
                               45:  0.015880  0.037054  0.047640
                               46:  0.015880  0.047640  0.005293
                               47:  0.015880  0.047640  0.015880
                               48:  0.015880  0.047640  0.026467
                               49:  0.015880  0.047640  0.037054
                               50:  0.015880  0.047640  0.047640
                               51:  0.026467  0.005293  0.005293
                               52:  0.026467  0.005293  0.015880
                               53:  0.026467  0.005293  0.026467
                               54:  0.026467  0.005293  0.037054
                               55:  0.026467  0.005293  0.047640
                               56:  0.026467  0.015880  0.005293
                               57:  0.026467  0.015880  0.015880
                               58:  0.026467  0.015880  0.026467
                               59:  0.026467  0.015880  0.037054
                               60:  0.026467  0.015880  0.047640
                               61:  0.026467  0.026467  0.005293
                               62:  0.026467  0.026467  0.015880
                               63:  0.026467  0.026467  0.026467

Extra options:
                             Mulliken analysis
                             Force calculation
Force type                   original

--------------------------------------------------------------------------------

***  Geometry step: 0

 iSCC Total electronic   Diff electronic      SCC error    
    1    0.00000000E+00    0.00000000E+00    0.72322423E+00
    2   -0.74709519E+02   -0.74709519E+02    0.41009327E+00
    3   -0.74773576E+02   -0.64057239E-01    0.49158818E-01
    4   -0.74800772E+02   -0.27195670E-01    0.20886828E-01
    5   -0.74801226E+02   -0.45350114E-03    0.78288498E-02
    6   -0.74801247E+02   -0.21034811E-04    0.25563100E-02
    7   -0.74801255E+02   -0.88534842E-05    0.12354857E-02
    8   -0.74801256E+02   -0.67200497E-06    0.42421400E-03
    9   -0.74801256E+02   -0.42090264E-07    0.11929283E-03
   10   -0.74801256E+02   -0.15250166E-07    0.39744697E-04
   11   -0.74801256E+02   -0.20942110E-08    0.18835267E-04
   12   -0.74801256E+02   -0.16235902E-09    0.28846522E-05
   13   -0.74801256E+02   -0.14139800E-10    0.64469658E-06
   14   -0.74801256E+02   -0.10658141E-11    0.27629125E-06
   15   -0.74801256E+02   -0.85265128E-13    0.20273259E-06
   16   -0.74801256E+02    0.00000000E+00    0.37256786E-07
   17   -0.74801256E+02   -0.14210855E-13    0.70432726E-08
   18   -0.74801256E+02    0.00000000E+00    0.17461292E-08
   19   -0.74801256E+02    0.14210855E-13    0.11168584E-08
   20   -0.74801256E+02    0.14210855E-13    0.28772174E-09
>> Charges saved for restart in charges.bin
   21   -0.74801256E+02    0.00000000E+00    0.45007553E-10
>> Charges saved for restart in charges.bin

Total Energy:                      -74.8012561782 H        -2035.4457 eV
Extrapolated to 0K:                -74.8012561782 H        -2035.4457 eV
Total Mermin free energy:          -74.8012561782 H        -2035.4457 eV
Force related energy:              -74.8012561782 H        -2035.4457 eV

Volume:                              0.674222E+04 au^3   0.999094E+03 A^3
Pressure:                           -0.324475E-03 au    -0.954638E+10 Pa

--------------------------------------------------------------------------------
DFTB+ running times                          cpu [s]             wall clock [s]
--------------------------------------------------------------------------------
Pre-SCC initialisation                 +       0.04 (  0.0%)       0.01 (  0.0%)
SCC                                    +     213.58 ( 97.8%)     121.96 ( 99.7%)
Post-SCC processing                    +       4.83 (  2.2%)       0.41 (  0.3%)
--------------------------------------------------------------------------------
Missing                                +       0.00 (  0.0%)       0.00 (  0.0%)
Total                                  =     218.45 (100.0%)     122.38 (100.0%)
--------------------------------------------------------------------------------
