|===============================================================================
|
|  DFTB+ development version (commit: d61a5eeb, base: 22.1)
|
|  Copyright (C) 2006 - 2022  DFTB+ developers group
|
|===============================================================================
|
|  When publishing results obtained with DFTB+, please cite the following
|  reference:
|
|  * DFTB+, a software package for efficient approximate density functional
|    theory based atomistic simulations, J. Chem. Phys. 152, 124101 (2020).
|    [doi: 10.1063/1.5143190]
|
|  You should also cite additional publications crediting the parametrization
|  data you use. Please consult the documentation of the SK-files for the
|  references.
|
|===============================================================================

Reading input file 'dftb_in.hsd'
Parser version: 11

--------------------------------------------------------------------------------
***  Converting input from parser version  3 to parser version 11 ...
WARNING!
-> Keyword moved to Analysis block.
Path: dftbplusinput/Options/MullikenAnalysis
Line: 34-34 (File: dftb_in.hsd)

WARNING!
-> Keyword moved to Analysis block.
Path: dftbplusinput/Options/AtomResolvedEnergies
Line: 36-36 (File: dftb_in.hsd)

WARNING!
-> Keyword moved to Analysis block.
Path: dftbplusinput/Options/CalculateForces
Line: 33-33 (File: dftb_in.hsd)

WARNING!
-> Adding legacy step size for finite difference differentiation
Path: dftbplusinput/Hamiltonian/DFTB/Differentiation

***  Done.

Reading SK-files:
../../slko/Li-Li.skf
../../slko/Li-P.skf
../../slko/Li-S.skf
../../slko/Li-Cl.skf
../../slko/P-P.skf
../../slko/P-S.skf
../../slko/P-Cl.skf
../../slko/S-S.skf
../../slko/S-Cl.skf
../../slko/Cl-Cl.skf
Done.


Processed input in HSD format written to 'dftb_pin.hsd'

Starting initialization...
--------------------------------------------------------------------------------
WARNING!
-> Dipole printed for extended system : value printed is not well defined
OpenMP threads:              12
Chosen random seed:          607228010
Mode:                        Static calculation
Self consistent charges:     Yes
SCC-tolerance:                 0.100000E-09
Max. scc iterations:                    100
Shell resolved Hubbard:      No
Spin polarisation:           No
Nr. of up electrons:            96.000000
Nr. of down electrons:          96.000000
Periodic boundaries:         Yes
Electronic solver:           Relatively robust
Mixer:                       Broyden mixer
Mixing parameter:                  0.200000
Maximal SCC-cycles:                     100
Nr. of chrg. vec. in memory:            100
Electronic temperature:              0.950045E-03 H      0.258520E-01 eV
Initial charges:             Set automatically (system chrg:   0.000E+00)
Included shells:            Li:  s, p
                             P:  s, p, d
                             S:  s, p, d
                            Cl:  s, p, d
K-points and weights:           1:  0.100000  0.100000  0.100000     0.016000
                                2:  0.100000  0.100000  0.300000     0.016000
                                3:  0.100000  0.100000  0.500000     0.016000
                                4:  0.100000  0.100000  0.700000     0.016000
                                5:  0.100000  0.100000  0.900000     0.016000
                                6:  0.100000  0.300000  0.100000     0.016000
                                7:  0.100000  0.300000  0.300000     0.016000
                                8:  0.100000  0.300000  0.500000     0.016000
                                9:  0.100000  0.300000  0.700000     0.016000
                               10:  0.100000  0.300000  0.900000     0.016000
                               11:  0.100000  0.500000  0.100000     0.016000
                               12:  0.100000  0.500000  0.300000     0.016000
                               13:  0.100000  0.500000  0.500000     0.016000
                               14:  0.100000  0.500000  0.700000     0.016000
                               15:  0.100000  0.500000  0.900000     0.016000
                               16:  0.100000  0.700000  0.100000     0.016000
                               17:  0.100000  0.700000  0.300000     0.016000
                               18:  0.100000  0.700000  0.500000     0.016000
                               19:  0.100000  0.700000  0.700000     0.016000
                               20:  0.100000  0.700000  0.900000     0.016000
                               21:  0.100000  0.900000  0.100000     0.016000
                               22:  0.100000  0.900000  0.300000     0.016000
                               23:  0.100000  0.900000  0.500000     0.016000
                               24:  0.100000  0.900000  0.700000     0.016000
                               25:  0.100000  0.900000  0.900000     0.016000
                               26:  0.300000  0.100000  0.100000     0.016000
                               27:  0.300000  0.100000  0.300000     0.016000
                               28:  0.300000  0.100000  0.500000     0.016000
                               29:  0.300000  0.100000  0.700000     0.016000
                               30:  0.300000  0.100000  0.900000     0.016000
                               31:  0.300000  0.300000  0.100000     0.016000
                               32:  0.300000  0.300000  0.300000     0.016000
                               33:  0.300000  0.300000  0.500000     0.016000
                               34:  0.300000  0.300000  0.700000     0.016000
                               35:  0.300000  0.300000  0.900000     0.016000
                               36:  0.300000  0.500000  0.100000     0.016000
                               37:  0.300000  0.500000  0.300000     0.016000
                               38:  0.300000  0.500000  0.500000     0.016000
                               39:  0.300000  0.500000  0.700000     0.016000
                               40:  0.300000  0.500000  0.900000     0.016000
                               41:  0.300000  0.700000  0.100000     0.016000
                               42:  0.300000  0.700000  0.300000     0.016000
                               43:  0.300000  0.700000  0.500000     0.016000
                               44:  0.300000  0.700000  0.700000     0.016000
                               45:  0.300000  0.700000  0.900000     0.016000
                               46:  0.300000  0.900000  0.100000     0.016000
                               47:  0.300000  0.900000  0.300000     0.016000
                               48:  0.300000  0.900000  0.500000     0.016000
                               49:  0.300000  0.900000  0.700000     0.016000
                               50:  0.300000  0.900000  0.900000     0.016000
                               51:  0.500000  0.100000  0.100000     0.016000
                               52:  0.500000  0.100000  0.300000     0.016000
                               53:  0.500000  0.100000  0.500000     0.016000
                               54:  0.500000  0.100000  0.700000     0.016000
                               55:  0.500000  0.100000  0.900000     0.016000
                               56:  0.500000  0.300000  0.100000     0.016000
                               57:  0.500000  0.300000  0.300000     0.016000
                               58:  0.500000  0.300000  0.500000     0.016000
                               59:  0.500000  0.300000  0.700000     0.016000
                               60:  0.500000  0.300000  0.900000     0.016000
                               61:  0.500000  0.500000  0.100000     0.016000
                               62:  0.500000  0.500000  0.300000     0.016000
                               63:  0.500000  0.500000  0.500000     0.008000

K-points in absolute space:     1:  0.005346  0.005346  0.005346
                                2:  0.005346  0.005346  0.016039
                                3:  0.005346  0.005346  0.026732
                                4:  0.005346  0.005346  0.037424
                                5:  0.005346  0.005346  0.048117
                                6:  0.005346  0.016039  0.005346
                                7:  0.005346  0.016039  0.016039
                                8:  0.005346  0.016039  0.026732
                                9:  0.005346  0.016039  0.037424
                               10:  0.005346  0.016039  0.048117
                               11:  0.005346  0.026732  0.005346
                               12:  0.005346  0.026732  0.016039
                               13:  0.005346  0.026732  0.026732
                               14:  0.005346  0.026732  0.037424
                               15:  0.005346  0.026732  0.048117
                               16:  0.005346  0.037424  0.005346
                               17:  0.005346  0.037424  0.016039
                               18:  0.005346  0.037424  0.026732
                               19:  0.005346  0.037424  0.037424
                               20:  0.005346  0.037424  0.048117
                               21:  0.005346  0.048117  0.005346
                               22:  0.005346  0.048117  0.016039
                               23:  0.005346  0.048117  0.026732
                               24:  0.005346  0.048117  0.037424
                               25:  0.005346  0.048117  0.048117
                               26:  0.016039  0.005346  0.005346
                               27:  0.016039  0.005346  0.016039
                               28:  0.016039  0.005346  0.026732
                               29:  0.016039  0.005346  0.037424
                               30:  0.016039  0.005346  0.048117
                               31:  0.016039  0.016039  0.005346
                               32:  0.016039  0.016039  0.016039
                               33:  0.016039  0.016039  0.026732
                               34:  0.016039  0.016039  0.037424
                               35:  0.016039  0.016039  0.048117
                               36:  0.016039  0.026732  0.005346
                               37:  0.016039  0.026732  0.016039
                               38:  0.016039  0.026732  0.026732
                               39:  0.016039  0.026732  0.037424
                               40:  0.016039  0.026732  0.048117
                               41:  0.016039  0.037424  0.005346
                               42:  0.016039  0.037424  0.016039
                               43:  0.016039  0.037424  0.026732
                               44:  0.016039  0.037424  0.037424
                               45:  0.016039  0.037424  0.048117
                               46:  0.016039  0.048117  0.005346
                               47:  0.016039  0.048117  0.016039
                               48:  0.016039  0.048117  0.026732
                               49:  0.016039  0.048117  0.037424
                               50:  0.016039  0.048117  0.048117
                               51:  0.026732  0.005346  0.005346
                               52:  0.026732  0.005346  0.016039
                               53:  0.026732  0.005346  0.026732
                               54:  0.026732  0.005346  0.037424
                               55:  0.026732  0.005346  0.048117
                               56:  0.026732  0.016039  0.005346
                               57:  0.026732  0.016039  0.016039
                               58:  0.026732  0.016039  0.026732
                               59:  0.026732  0.016039  0.037424
                               60:  0.026732  0.016039  0.048117
                               61:  0.026732  0.026732  0.005346
                               62:  0.026732  0.026732  0.016039
                               63:  0.026732  0.026732  0.026732

Extra options:
                             Mulliken analysis
                             Force calculation
Force type                   original

--------------------------------------------------------------------------------

***  Geometry step: 0

 iSCC Total electronic   Diff electronic      SCC error    
    1    0.00000000E+00    0.00000000E+00    0.73331587E+00
    2   -0.74773593E+02   -0.74773593E+02    0.41997764E+00
    3   -0.74836459E+02   -0.62865887E-01    0.43916116E-01
    4   -0.74863301E+02   -0.26842505E-01    0.20307942E-01
    5   -0.74863719E+02   -0.41800698E-03    0.75452725E-02
    6   -0.74863732E+02   -0.12926664E-04    0.24809182E-02
    7   -0.74863740E+02   -0.76063203E-05    0.11148800E-02
    8   -0.74863741E+02   -0.80184729E-06    0.43746679E-03
    9   -0.74863741E+02   -0.40015294E-07    0.12441651E-03
   10   -0.74863741E+02   -0.11203014E-07    0.36838954E-04
   11   -0.74863741E+02   -0.16108572E-08    0.17933840E-04
   12   -0.74863741E+02   -0.17530510E-09    0.27525041E-05
   13   -0.74863741E+02   -0.96065378E-11    0.58540518E-06
   14   -0.74863741E+02   -0.98054898E-12    0.24501218E-06
   15   -0.74863741E+02   -0.85265128E-13    0.18776431E-06
   16   -0.74863741E+02    0.00000000E+00    0.42026132E-07
   17   -0.74863741E+02    0.14210855E-13    0.73533171E-08
   18   -0.74863741E+02   -0.28421709E-13    0.15266014E-08
   19   -0.74863741E+02    0.28421709E-13    0.10303353E-08
   20   -0.74863741E+02    0.14210855E-13    0.38621972E-09
>> Charges saved for restart in charges.bin
   21   -0.74863741E+02   -0.14210855E-13    0.45715431E-10
>> Charges saved for restart in charges.bin

Total Energy:                      -74.8637407882 H        -2037.1460 eV
Extrapolated to 0K:                -74.8637407882 H        -2037.1460 eV
Total Mermin free energy:          -74.8637407882 H        -2037.1460 eV
Force related energy:              -74.8637407882 H        -2037.1460 eV

Volume:                              0.654393E+04 au^3   0.969711E+03 A^3
Pressure:                           -0.305263E-03 au    -0.898114E+10 Pa

--------------------------------------------------------------------------------
DFTB+ running times                          cpu [s]             wall clock [s]
--------------------------------------------------------------------------------
Pre-SCC initialisation                 +       0.04 (  0.0%)       0.01 (  0.0%)
SCC                                    +     213.49 ( 97.8%)     121.88 ( 99.7%)
Post-SCC processing                    +       4.83 (  2.2%)       0.41 (  0.3%)
--------------------------------------------------------------------------------
Missing                                +       0.00 (  0.0%)       0.00 (  0.0%)
Total                                  =     218.36 (100.0%)     122.30 (100.0%)
--------------------------------------------------------------------------------
