|===============================================================================
|
|  DFTB+ development version (commit: d61a5eeb, base: 22.1)
|
|  Copyright (C) 2006 - 2022  DFTB+ developers group
|
|===============================================================================
|
|  When publishing results obtained with DFTB+, please cite the following
|  reference:
|
|  * DFTB+, a software package for efficient approximate density functional
|    theory based atomistic simulations, J. Chem. Phys. 152, 124101 (2020).
|    [doi: 10.1063/1.5143190]
|
|  You should also cite additional publications crediting the parametrization
|  data you use. Please consult the documentation of the SK-files for the
|  references.
|
|===============================================================================

Reading input file 'dftb_in.hsd'
Parser version: 11

--------------------------------------------------------------------------------
***  Converting input from parser version  3 to parser version 11 ...
WARNING!
-> Keyword moved to Analysis block.
Path: dftbplusinput/Options/MullikenAnalysis
Line: 34-34 (File: dftb_in.hsd)

WARNING!
-> Keyword moved to Analysis block.
Path: dftbplusinput/Options/AtomResolvedEnergies
Line: 36-36 (File: dftb_in.hsd)

WARNING!
-> Keyword moved to Analysis block.
Path: dftbplusinput/Options/CalculateForces
Line: 33-33 (File: dftb_in.hsd)

WARNING!
-> Adding legacy step size for finite difference differentiation
Path: dftbplusinput/Hamiltonian/DFTB/Differentiation

***  Done.

Reading SK-files:
../../slko/Li-Li.skf
../../slko/Li-P.skf
../../slko/Li-S.skf
../../slko/Li-Cl.skf
../../slko/P-P.skf
../../slko/P-S.skf
../../slko/P-Cl.skf
../../slko/S-S.skf
../../slko/S-Cl.skf
../../slko/Cl-Cl.skf
Done.


Processed input in HSD format written to 'dftb_pin.hsd'

Starting initialization...
--------------------------------------------------------------------------------
WARNING!
-> Dipole printed for extended system : value printed is not well defined
OpenMP threads:              12
Chosen random seed:          606861285
Mode:                        Static calculation
Self consistent charges:     Yes
SCC-tolerance:                 0.100000E-09
Max. scc iterations:                    100
Shell resolved Hubbard:      No
Spin polarisation:           No
Nr. of up electrons:            96.000000
Nr. of down electrons:          96.000000
Periodic boundaries:         Yes
Electronic solver:           Relatively robust
Mixer:                       Broyden mixer
Mixing parameter:                  0.200000
Maximal SCC-cycles:                     100
Nr. of chrg. vec. in memory:            100
Electronic temperature:              0.950045E-03 H      0.258520E-01 eV
Initial charges:             Set automatically (system chrg:   0.000E+00)
Included shells:            Li:  s, p
                             P:  s, p, d
                             S:  s, p, d
                            Cl:  s, p, d
K-points and weights:           1:  0.100000  0.100000  0.100000     0.016000
                                2:  0.100000  0.100000  0.300000     0.016000
                                3:  0.100000  0.100000  0.500000     0.016000
                                4:  0.100000  0.100000  0.700000     0.016000
                                5:  0.100000  0.100000  0.900000     0.016000
                                6:  0.100000  0.300000  0.100000     0.016000
                                7:  0.100000  0.300000  0.300000     0.016000
                                8:  0.100000  0.300000  0.500000     0.016000
                                9:  0.100000  0.300000  0.700000     0.016000
                               10:  0.100000  0.300000  0.900000     0.016000
                               11:  0.100000  0.500000  0.100000     0.016000
                               12:  0.100000  0.500000  0.300000     0.016000
                               13:  0.100000  0.500000  0.500000     0.016000
                               14:  0.100000  0.500000  0.700000     0.016000
                               15:  0.100000  0.500000  0.900000     0.016000
                               16:  0.100000  0.700000  0.100000     0.016000
                               17:  0.100000  0.700000  0.300000     0.016000
                               18:  0.100000  0.700000  0.500000     0.016000
                               19:  0.100000  0.700000  0.700000     0.016000
                               20:  0.100000  0.700000  0.900000     0.016000
                               21:  0.100000  0.900000  0.100000     0.016000
                               22:  0.100000  0.900000  0.300000     0.016000
                               23:  0.100000  0.900000  0.500000     0.016000
                               24:  0.100000  0.900000  0.700000     0.016000
                               25:  0.100000  0.900000  0.900000     0.016000
                               26:  0.300000  0.100000  0.100000     0.016000
                               27:  0.300000  0.100000  0.300000     0.016000
                               28:  0.300000  0.100000  0.500000     0.016000
                               29:  0.300000  0.100000  0.700000     0.016000
                               30:  0.300000  0.100000  0.900000     0.016000
                               31:  0.300000  0.300000  0.100000     0.016000
                               32:  0.300000  0.300000  0.300000     0.016000
                               33:  0.300000  0.300000  0.500000     0.016000
                               34:  0.300000  0.300000  0.700000     0.016000
                               35:  0.300000  0.300000  0.900000     0.016000
                               36:  0.300000  0.500000  0.100000     0.016000
                               37:  0.300000  0.500000  0.300000     0.016000
                               38:  0.300000  0.500000  0.500000     0.016000
                               39:  0.300000  0.500000  0.700000     0.016000
                               40:  0.300000  0.500000  0.900000     0.016000
                               41:  0.300000  0.700000  0.100000     0.016000
                               42:  0.300000  0.700000  0.300000     0.016000
                               43:  0.300000  0.700000  0.500000     0.016000
                               44:  0.300000  0.700000  0.700000     0.016000
                               45:  0.300000  0.700000  0.900000     0.016000
                               46:  0.300000  0.900000  0.100000     0.016000
                               47:  0.300000  0.900000  0.300000     0.016000
                               48:  0.300000  0.900000  0.500000     0.016000
                               49:  0.300000  0.900000  0.700000     0.016000
                               50:  0.300000  0.900000  0.900000     0.016000
                               51:  0.500000  0.100000  0.100000     0.016000
                               52:  0.500000  0.100000  0.300000     0.016000
                               53:  0.500000  0.100000  0.500000     0.016000
                               54:  0.500000  0.100000  0.700000     0.016000
                               55:  0.500000  0.100000  0.900000     0.016000
                               56:  0.500000  0.300000  0.100000     0.016000
                               57:  0.500000  0.300000  0.300000     0.016000
                               58:  0.500000  0.300000  0.500000     0.016000
                               59:  0.500000  0.300000  0.700000     0.016000
                               60:  0.500000  0.300000  0.900000     0.016000
                               61:  0.500000  0.500000  0.100000     0.016000
                               62:  0.500000  0.500000  0.300000     0.016000
                               63:  0.500000  0.500000  0.500000     0.008000

K-points in absolute space:     1:  0.005512  0.005512  0.005512
                                2:  0.005512  0.005512  0.016535
                                3:  0.005512  0.005512  0.027558
                                4:  0.005512  0.005512  0.038582
                                5:  0.005512  0.005512  0.049605
                                6:  0.005512  0.016535  0.005512
                                7:  0.005512  0.016535  0.016535
                                8:  0.005512  0.016535  0.027558
                                9:  0.005512  0.016535  0.038582
                               10:  0.005512  0.016535  0.049605
                               11:  0.005512  0.027558  0.005512
                               12:  0.005512  0.027558  0.016535
                               13:  0.005512  0.027558  0.027558
                               14:  0.005512  0.027558  0.038582
                               15:  0.005512  0.027558  0.049605
                               16:  0.005512  0.038582  0.005512
                               17:  0.005512  0.038582  0.016535
                               18:  0.005512  0.038582  0.027558
                               19:  0.005512  0.038582  0.038582
                               20:  0.005512  0.038582  0.049605
                               21:  0.005512  0.049605  0.005512
                               22:  0.005512  0.049605  0.016535
                               23:  0.005512  0.049605  0.027558
                               24:  0.005512  0.049605  0.038582
                               25:  0.005512  0.049605  0.049605
                               26:  0.016535  0.005512  0.005512
                               27:  0.016535  0.005512  0.016535
                               28:  0.016535  0.005512  0.027558
                               29:  0.016535  0.005512  0.038582
                               30:  0.016535  0.005512  0.049605
                               31:  0.016535  0.016535  0.005512
                               32:  0.016535  0.016535  0.016535
                               33:  0.016535  0.016535  0.027558
                               34:  0.016535  0.016535  0.038582
                               35:  0.016535  0.016535  0.049605
                               36:  0.016535  0.027558  0.005512
                               37:  0.016535  0.027558  0.016535
                               38:  0.016535  0.027558  0.027558
                               39:  0.016535  0.027558  0.038582
                               40:  0.016535  0.027558  0.049605
                               41:  0.016535  0.038582  0.005512
                               42:  0.016535  0.038582  0.016535
                               43:  0.016535  0.038582  0.027558
                               44:  0.016535  0.038582  0.038582
                               45:  0.016535  0.038582  0.049605
                               46:  0.016535  0.049605  0.005512
                               47:  0.016535  0.049605  0.016535
                               48:  0.016535  0.049605  0.027558
                               49:  0.016535  0.049605  0.038582
                               50:  0.016535  0.049605  0.049605
                               51:  0.027558  0.005512  0.005512
                               52:  0.027558  0.005512  0.016535
                               53:  0.027558  0.005512  0.027558
                               54:  0.027558  0.005512  0.038582
                               55:  0.027558  0.005512  0.049605
                               56:  0.027558  0.016535  0.005512
                               57:  0.027558  0.016535  0.016535
                               58:  0.027558  0.016535  0.027558
                               59:  0.027558  0.016535  0.038582
                               60:  0.027558  0.016535  0.049605
                               61:  0.027558  0.027558  0.005512
                               62:  0.027558  0.027558  0.016535
                               63:  0.027558  0.027558  0.027558

Extra options:
                             Mulliken analysis
                             Force calculation
Force type                   original

--------------------------------------------------------------------------------

***  Geometry step: 0

 iSCC Total electronic   Diff electronic      SCC error    
    1    0.00000000E+00    0.00000000E+00    0.75664679E+00
    2   -0.74933094E+02   -0.74933094E+02    0.44498329E+00
    3   -0.74992524E+02   -0.59430144E-01    0.38997784E-01
    4   -0.75018241E+02   -0.25716705E-01    0.15307933E-01
    5   -0.75018692E+02   -0.45140361E-03    0.81531617E-02
    6   -0.75018700E+02   -0.84145530E-05    0.24540261E-02
    7   -0.75018702E+02   -0.13396239E-05    0.53425107E-03
    8   -0.75018703E+02   -0.10540381E-05    0.20947399E-03
    9   -0.75018703E+02   -0.48937196E-07    0.11219929E-03
   10   -0.75018703E+02   -0.17691377E-08    0.22518798E-04
   11   -0.75018703E+02   -0.12151702E-09    0.95703455E-05
   12   -0.75018703E+02   -0.20328628E-09    0.25765038E-05
   13   -0.75018703E+02   -0.30837555E-11    0.37613483E-06
   14   -0.75018703E+02   -0.45474735E-12    0.22121990E-06
   15   -0.75018703E+02   -0.42632564E-13    0.13348739E-06
   16   -0.75018703E+02    0.00000000E+00    0.43018622E-07
   17   -0.75018703E+02    0.00000000E+00    0.76761557E-08
   18   -0.75018703E+02   -0.14210855E-13    0.16532313E-08
   19   -0.75018703E+02    0.14210855E-13    0.82072704E-09
   20   -0.75018703E+02   -0.14210855E-13    0.44882675E-09
>> Charges saved for restart in charges.bin
   21   -0.75018703E+02   -0.14210855E-13    0.43969273E-10
>> Charges saved for restart in charges.bin

Total Energy:                      -75.0187027879 H        -2041.3628 eV
Extrapolated to 0K:                -75.0187027879 H        -2041.3628 eV
Total Mermin free energy:          -75.0187027879 H        -2041.3628 eV
Force related energy:              -75.0187027879 H        -2041.3628 eV

Volume:                              0.597247E+04 au^3   0.885029E+03 A^3
Pressure:                           -0.232824E-03 au    -0.684990E+10 Pa

--------------------------------------------------------------------------------
DFTB+ running times                          cpu [s]             wall clock [s]
--------------------------------------------------------------------------------
Pre-SCC initialisation                 +       0.07 (  0.0%)       0.01 (  0.0%)
SCC                                    +     214.27 ( 96.9%)     121.76 ( 99.5%)
Post-SCC processing                    +       6.71 (  3.0%)       0.56 (  0.5%)
--------------------------------------------------------------------------------
Missing                                +       0.00 (  0.0%)       0.00 (  0.0%)
Total                                  =     221.04 (100.0%)     122.34 (100.0%)
--------------------------------------------------------------------------------
