|===============================================================================
|
|  DFTB+ development version (commit: d61a5eeb, base: 22.1)
|
|  Copyright (C) 2006 - 2022  DFTB+ developers group
|
|===============================================================================
|
|  When publishing results obtained with DFTB+, please cite the following
|  reference:
|
|  * DFTB+, a software package for efficient approximate density functional
|    theory based atomistic simulations, J. Chem. Phys. 152, 124101 (2020).
|    [doi: 10.1063/1.5143190]
|
|  You should also cite additional publications crediting the parametrization
|  data you use. Please consult the documentation of the SK-files for the
|  references.
|
|===============================================================================

Reading input file 'dftb_in.hsd'
Parser version: 11

--------------------------------------------------------------------------------
***  Converting input from parser version  3 to parser version 11 ...
WARNING!
-> Keyword moved to Analysis block.
Path: dftbplusinput/Options/MullikenAnalysis
Line: 34-34 (File: dftb_in.hsd)

WARNING!
-> Keyword moved to Analysis block.
Path: dftbplusinput/Options/AtomResolvedEnergies
Line: 36-36 (File: dftb_in.hsd)

WARNING!
-> Keyword moved to Analysis block.
Path: dftbplusinput/Options/CalculateForces
Line: 33-33 (File: dftb_in.hsd)

WARNING!
-> Adding legacy step size for finite difference differentiation
Path: dftbplusinput/Hamiltonian/DFTB/Differentiation

***  Done.

Reading SK-files:
../../slko/Li-Li.skf
../../slko/Li-P.skf
../../slko/Li-S.skf
../../slko/Li-Cl.skf
../../slko/P-P.skf
../../slko/P-S.skf
../../slko/P-Cl.skf
../../slko/S-S.skf
../../slko/S-Cl.skf
../../slko/Cl-Cl.skf
Done.


Processed input in HSD format written to 'dftb_pin.hsd'

Starting initialization...
--------------------------------------------------------------------------------
WARNING!
-> Dipole printed for extended system : value printed is not well defined
OpenMP threads:              12
Chosen random seed:          607472777
Mode:                        Static calculation
Self consistent charges:     Yes
SCC-tolerance:                 0.100000E-09
Max. scc iterations:                    100
Shell resolved Hubbard:      No
Spin polarisation:           No
Nr. of up electrons:            96.000000
Nr. of down electrons:          96.000000
Periodic boundaries:         Yes
Electronic solver:           Relatively robust
Mixer:                       Broyden mixer
Mixing parameter:                  0.200000
Maximal SCC-cycles:                     100
Nr. of chrg. vec. in memory:            100
Electronic temperature:              0.950045E-03 H      0.258520E-01 eV
Initial charges:             Set automatically (system chrg:   0.000E+00)
Included shells:            Li:  s, p
                             P:  s, p, d
                             S:  s, p, d
                            Cl:  s, p, d
K-points and weights:           1:  0.100000  0.100000  0.100000     0.016000
                                2:  0.100000  0.100000  0.300000     0.016000
                                3:  0.100000  0.100000  0.500000     0.016000
                                4:  0.100000  0.100000  0.700000     0.016000
                                5:  0.100000  0.100000  0.900000     0.016000
                                6:  0.100000  0.300000  0.100000     0.016000
                                7:  0.100000  0.300000  0.300000     0.016000
                                8:  0.100000  0.300000  0.500000     0.016000
                                9:  0.100000  0.300000  0.700000     0.016000
                               10:  0.100000  0.300000  0.900000     0.016000
                               11:  0.100000  0.500000  0.100000     0.016000
                               12:  0.100000  0.500000  0.300000     0.016000
                               13:  0.100000  0.500000  0.500000     0.016000
                               14:  0.100000  0.500000  0.700000     0.016000
                               15:  0.100000  0.500000  0.900000     0.016000
                               16:  0.100000  0.700000  0.100000     0.016000
                               17:  0.100000  0.700000  0.300000     0.016000
                               18:  0.100000  0.700000  0.500000     0.016000
                               19:  0.100000  0.700000  0.700000     0.016000
                               20:  0.100000  0.700000  0.900000     0.016000
                               21:  0.100000  0.900000  0.100000     0.016000
                               22:  0.100000  0.900000  0.300000     0.016000
                               23:  0.100000  0.900000  0.500000     0.016000
                               24:  0.100000  0.900000  0.700000     0.016000
                               25:  0.100000  0.900000  0.900000     0.016000
                               26:  0.300000  0.100000  0.100000     0.016000
                               27:  0.300000  0.100000  0.300000     0.016000
                               28:  0.300000  0.100000  0.500000     0.016000
                               29:  0.300000  0.100000  0.700000     0.016000
                               30:  0.300000  0.100000  0.900000     0.016000
                               31:  0.300000  0.300000  0.100000     0.016000
                               32:  0.300000  0.300000  0.300000     0.016000
                               33:  0.300000  0.300000  0.500000     0.016000
                               34:  0.300000  0.300000  0.700000     0.016000
                               35:  0.300000  0.300000  0.900000     0.016000
                               36:  0.300000  0.500000  0.100000     0.016000
                               37:  0.300000  0.500000  0.300000     0.016000
                               38:  0.300000  0.500000  0.500000     0.016000
                               39:  0.300000  0.500000  0.700000     0.016000
                               40:  0.300000  0.500000  0.900000     0.016000
                               41:  0.300000  0.700000  0.100000     0.016000
                               42:  0.300000  0.700000  0.300000     0.016000
                               43:  0.300000  0.700000  0.500000     0.016000
                               44:  0.300000  0.700000  0.700000     0.016000
                               45:  0.300000  0.700000  0.900000     0.016000
                               46:  0.300000  0.900000  0.100000     0.016000
                               47:  0.300000  0.900000  0.300000     0.016000
                               48:  0.300000  0.900000  0.500000     0.016000
                               49:  0.300000  0.900000  0.700000     0.016000
                               50:  0.300000  0.900000  0.900000     0.016000
                               51:  0.500000  0.100000  0.100000     0.016000
                               52:  0.500000  0.100000  0.300000     0.016000
                               53:  0.500000  0.100000  0.500000     0.016000
                               54:  0.500000  0.100000  0.700000     0.016000
                               55:  0.500000  0.100000  0.900000     0.016000
                               56:  0.500000  0.300000  0.100000     0.016000
                               57:  0.500000  0.300000  0.300000     0.016000
                               58:  0.500000  0.300000  0.500000     0.016000
                               59:  0.500000  0.300000  0.700000     0.016000
                               60:  0.500000  0.300000  0.900000     0.016000
                               61:  0.500000  0.500000  0.100000     0.016000
                               62:  0.500000  0.500000  0.300000     0.016000
                               63:  0.500000  0.500000  0.500000     0.008000

K-points in absolute space:     1:  0.005241  0.005241  0.005241
                                2:  0.005241  0.005241  0.015724
                                3:  0.005241  0.005241  0.026207
                                4:  0.005241  0.005241  0.036690
                                5:  0.005241  0.005241  0.047173
                                6:  0.005241  0.015724  0.005241
                                7:  0.005241  0.015724  0.015724
                                8:  0.005241  0.015724  0.026207
                                9:  0.005241  0.015724  0.036690
                               10:  0.005241  0.015724  0.047173
                               11:  0.005241  0.026207  0.005241
                               12:  0.005241  0.026207  0.015724
                               13:  0.005241  0.026207  0.026207
                               14:  0.005241  0.026207  0.036690
                               15:  0.005241  0.026207  0.047173
                               16:  0.005241  0.036690  0.005241
                               17:  0.005241  0.036690  0.015724
                               18:  0.005241  0.036690  0.026207
                               19:  0.005241  0.036690  0.036690
                               20:  0.005241  0.036690  0.047173
                               21:  0.005241  0.047173  0.005241
                               22:  0.005241  0.047173  0.015724
                               23:  0.005241  0.047173  0.026207
                               24:  0.005241  0.047173  0.036690
                               25:  0.005241  0.047173  0.047173
                               26:  0.015724  0.005241  0.005241
                               27:  0.015724  0.005241  0.015724
                               28:  0.015724  0.005241  0.026207
                               29:  0.015724  0.005241  0.036690
                               30:  0.015724  0.005241  0.047173
                               31:  0.015724  0.015724  0.005241
                               32:  0.015724  0.015724  0.015724
                               33:  0.015724  0.015724  0.026207
                               34:  0.015724  0.015724  0.036690
                               35:  0.015724  0.015724  0.047173
                               36:  0.015724  0.026207  0.005241
                               37:  0.015724  0.026207  0.015724
                               38:  0.015724  0.026207  0.026207
                               39:  0.015724  0.026207  0.036690
                               40:  0.015724  0.026207  0.047173
                               41:  0.015724  0.036690  0.005241
                               42:  0.015724  0.036690  0.015724
                               43:  0.015724  0.036690  0.026207
                               44:  0.015724  0.036690  0.036690
                               45:  0.015724  0.036690  0.047173
                               46:  0.015724  0.047173  0.005241
                               47:  0.015724  0.047173  0.015724
                               48:  0.015724  0.047173  0.026207
                               49:  0.015724  0.047173  0.036690
                               50:  0.015724  0.047173  0.047173
                               51:  0.026207  0.005241  0.005241
                               52:  0.026207  0.005241  0.015724
                               53:  0.026207  0.005241  0.026207
                               54:  0.026207  0.005241  0.036690
                               55:  0.026207  0.005241  0.047173
                               56:  0.026207  0.015724  0.005241
                               57:  0.026207  0.015724  0.015724
                               58:  0.026207  0.015724  0.026207
                               59:  0.026207  0.015724  0.036690
                               60:  0.026207  0.015724  0.047173
                               61:  0.026207  0.026207  0.005241
                               62:  0.026207  0.026207  0.015724
                               63:  0.026207  0.026207  0.026207

Extra options:
                             Mulliken analysis
                             Force calculation
Force type                   original

--------------------------------------------------------------------------------

***  Geometry step: 0

 iSCC Total electronic   Diff electronic      SCC error    
    1    0.00000000E+00    0.00000000E+00    0.71212807E+00
    2   -0.74640603E+02   -0.74640603E+02    0.39956088E+00
    3   -0.74705788E+02   -0.65185692E-01    0.54187003E-01
    4   -0.74733330E+02   -0.27541626E-01    0.21184382E-01
    5   -0.74733848E+02   -0.51790409E-03    0.76298598E-02
    6   -0.74733879E+02   -0.30781129E-04    0.26545519E-02
    7   -0.74733888E+02   -0.92871628E-05    0.13220574E-02
    8   -0.74733888E+02   -0.53373387E-06    0.38169557E-03
    9   -0.74733888E+02   -0.48172012E-07    0.13159821E-03
   10   -0.74733888E+02   -0.18002737E-07    0.42134885E-04
   11   -0.74733888E+02   -0.25294042E-08    0.19366064E-04
   12   -0.74733888E+02   -0.14448176E-09    0.30430908E-05
   13   -0.74733888E+02   -0.21103119E-10    0.67270280E-06
   14   -0.74733888E+02   -0.12505552E-11    0.31178288E-06
   15   -0.74733888E+02   -0.71054274E-13    0.21607471E-06
   16   -0.74733888E+02   -0.14210855E-13    0.33081051E-07
   17   -0.74733888E+02    0.00000000E+00    0.63000272E-08
   18   -0.74733888E+02    0.00000000E+00    0.19007350E-08
   19   -0.74733888E+02   -0.14210855E-13    0.11575184E-08
   20   -0.74733888E+02    0.14210855E-13    0.19678525E-09
>> Charges saved for restart in charges.bin
   21   -0.74733888E+02    0.14210855E-13    0.42169712E-10
>> Charges saved for restart in charges.bin

Total Energy:                      -74.7338884287 H        -2033.6126 eV
Extrapolated to 0K:                -74.7338884287 H        -2033.6126 eV
Total Mermin free energy:          -74.7338884287 H        -2033.6126 eV
Force related energy:              -74.7338884287 H        -2033.6126 eV

Volume:                              0.694447E+04 au^3   0.102907E+04 A^3
Pressure:                           -0.341230E-03 au    -0.100393E+11 Pa

--------------------------------------------------------------------------------
DFTB+ running times                          cpu [s]             wall clock [s]
--------------------------------------------------------------------------------
Pre-SCC initialisation                 +       0.03 (  0.0%)       0.01 (  0.0%)
SCC                                    +     213.75 ( 97.8%)     121.89 ( 99.7%)
Post-SCC processing                    +       4.81 (  2.2%)       0.41 (  0.3%)
Post-geometry optimisation             +       0.04 (  0.0%)       0.00 (  0.0%)
--------------------------------------------------------------------------------
Missing                                +       0.00 (  0.0%)       0.00 (  0.0%)
Total                                  =     218.63 (100.0%)     122.31 (100.0%)
--------------------------------------------------------------------------------
