|===============================================================================
|
|  DFTB+ development version (commit: d61a5eeb, base: 22.1)
|
|  Copyright (C) 2006 - 2022  DFTB+ developers group
|
|===============================================================================
|
|  When publishing results obtained with DFTB+, please cite the following
|  reference:
|
|  * DFTB+, a software package for efficient approximate density functional
|    theory based atomistic simulations, J. Chem. Phys. 152, 124101 (2020).
|    [doi: 10.1063/1.5143190]
|
|  You should also cite additional publications crediting the parametrization
|  data you use. Please consult the documentation of the SK-files for the
|  references.
|
|===============================================================================

Reading input file 'dftb_in.hsd'
Parser version: 11

--------------------------------------------------------------------------------
***  Converting input from parser version  3 to parser version 11 ...
WARNING!
-> Keyword moved to Analysis block.
Path: dftbplusinput/Options/MullikenAnalysis
Line: 34-34 (File: dftb_in.hsd)

WARNING!
-> Keyword moved to Analysis block.
Path: dftbplusinput/Options/AtomResolvedEnergies
Line: 36-36 (File: dftb_in.hsd)

WARNING!
-> Keyword moved to Analysis block.
Path: dftbplusinput/Options/CalculateForces
Line: 33-33 (File: dftb_in.hsd)

WARNING!
-> Adding legacy step size for finite difference differentiation
Path: dftbplusinput/Hamiltonian/DFTB/Differentiation

***  Done.

Reading SK-files:
../../slko/Li-Li.skf
../../slko/Li-P.skf
../../slko/Li-S.skf
../../slko/Li-Cl.skf
../../slko/P-P.skf
../../slko/P-S.skf
../../slko/P-Cl.skf
../../slko/S-S.skf
../../slko/S-Cl.skf
../../slko/Cl-Cl.skf
Done.


Processed input in HSD format written to 'dftb_pin.hsd'

Starting initialization...
--------------------------------------------------------------------------------
WARNING!
-> Dipole printed for extended system : value printed is not well defined
OpenMP threads:              12
Chosen random seed:          606983672
Mode:                        Static calculation
Self consistent charges:     Yes
SCC-tolerance:                 0.100000E-09
Max. scc iterations:                    100
Shell resolved Hubbard:      No
Spin polarisation:           No
Nr. of up electrons:            96.000000
Nr. of down electrons:          96.000000
Periodic boundaries:         Yes
Electronic solver:           Relatively robust
Mixer:                       Broyden mixer
Mixing parameter:                  0.200000
Maximal SCC-cycles:                     100
Nr. of chrg. vec. in memory:            100
Electronic temperature:              0.950045E-03 H      0.258520E-01 eV
Initial charges:             Set automatically (system chrg:   0.000E+00)
Included shells:            Li:  s, p
                             P:  s, p, d
                             S:  s, p, d
                            Cl:  s, p, d
K-points and weights:           1:  0.100000  0.100000  0.100000     0.016000
                                2:  0.100000  0.100000  0.300000     0.016000
                                3:  0.100000  0.100000  0.500000     0.016000
                                4:  0.100000  0.100000  0.700000     0.016000
                                5:  0.100000  0.100000  0.900000     0.016000
                                6:  0.100000  0.300000  0.100000     0.016000
                                7:  0.100000  0.300000  0.300000     0.016000
                                8:  0.100000  0.300000  0.500000     0.016000
                                9:  0.100000  0.300000  0.700000     0.016000
                               10:  0.100000  0.300000  0.900000     0.016000
                               11:  0.100000  0.500000  0.100000     0.016000
                               12:  0.100000  0.500000  0.300000     0.016000
                               13:  0.100000  0.500000  0.500000     0.016000
                               14:  0.100000  0.500000  0.700000     0.016000
                               15:  0.100000  0.500000  0.900000     0.016000
                               16:  0.100000  0.700000  0.100000     0.016000
                               17:  0.100000  0.700000  0.300000     0.016000
                               18:  0.100000  0.700000  0.500000     0.016000
                               19:  0.100000  0.700000  0.700000     0.016000
                               20:  0.100000  0.700000  0.900000     0.016000
                               21:  0.100000  0.900000  0.100000     0.016000
                               22:  0.100000  0.900000  0.300000     0.016000
                               23:  0.100000  0.900000  0.500000     0.016000
                               24:  0.100000  0.900000  0.700000     0.016000
                               25:  0.100000  0.900000  0.900000     0.016000
                               26:  0.300000  0.100000  0.100000     0.016000
                               27:  0.300000  0.100000  0.300000     0.016000
                               28:  0.300000  0.100000  0.500000     0.016000
                               29:  0.300000  0.100000  0.700000     0.016000
                               30:  0.300000  0.100000  0.900000     0.016000
                               31:  0.300000  0.300000  0.100000     0.016000
                               32:  0.300000  0.300000  0.300000     0.016000
                               33:  0.300000  0.300000  0.500000     0.016000
                               34:  0.300000  0.300000  0.700000     0.016000
                               35:  0.300000  0.300000  0.900000     0.016000
                               36:  0.300000  0.500000  0.100000     0.016000
                               37:  0.300000  0.500000  0.300000     0.016000
                               38:  0.300000  0.500000  0.500000     0.016000
                               39:  0.300000  0.500000  0.700000     0.016000
                               40:  0.300000  0.500000  0.900000     0.016000
                               41:  0.300000  0.700000  0.100000     0.016000
                               42:  0.300000  0.700000  0.300000     0.016000
                               43:  0.300000  0.700000  0.500000     0.016000
                               44:  0.300000  0.700000  0.700000     0.016000
                               45:  0.300000  0.700000  0.900000     0.016000
                               46:  0.300000  0.900000  0.100000     0.016000
                               47:  0.300000  0.900000  0.300000     0.016000
                               48:  0.300000  0.900000  0.500000     0.016000
                               49:  0.300000  0.900000  0.700000     0.016000
                               50:  0.300000  0.900000  0.900000     0.016000
                               51:  0.500000  0.100000  0.100000     0.016000
                               52:  0.500000  0.100000  0.300000     0.016000
                               53:  0.500000  0.100000  0.500000     0.016000
                               54:  0.500000  0.100000  0.700000     0.016000
                               55:  0.500000  0.100000  0.900000     0.016000
                               56:  0.500000  0.300000  0.100000     0.016000
                               57:  0.500000  0.300000  0.300000     0.016000
                               58:  0.500000  0.300000  0.500000     0.016000
                               59:  0.500000  0.300000  0.700000     0.016000
                               60:  0.500000  0.300000  0.900000     0.016000
                               61:  0.500000  0.500000  0.100000     0.016000
                               62:  0.500000  0.500000  0.300000     0.016000
                               63:  0.500000  0.500000  0.500000     0.008000

K-points in absolute space:     1:  0.005455  0.005455  0.005455
                                2:  0.005455  0.005455  0.016366
                                3:  0.005455  0.005455  0.027277
                                4:  0.005455  0.005455  0.038188
                                5:  0.005455  0.005455  0.049099
                                6:  0.005455  0.016366  0.005455
                                7:  0.005455  0.016366  0.016366
                                8:  0.005455  0.016366  0.027277
                                9:  0.005455  0.016366  0.038188
                               10:  0.005455  0.016366  0.049099
                               11:  0.005455  0.027277  0.005455
                               12:  0.005455  0.027277  0.016366
                               13:  0.005455  0.027277  0.027277
                               14:  0.005455  0.027277  0.038188
                               15:  0.005455  0.027277  0.049099
                               16:  0.005455  0.038188  0.005455
                               17:  0.005455  0.038188  0.016366
                               18:  0.005455  0.038188  0.027277
                               19:  0.005455  0.038188  0.038188
                               20:  0.005455  0.038188  0.049099
                               21:  0.005455  0.049099  0.005455
                               22:  0.005455  0.049099  0.016366
                               23:  0.005455  0.049099  0.027277
                               24:  0.005455  0.049099  0.038188
                               25:  0.005455  0.049099  0.049099
                               26:  0.016366  0.005455  0.005455
                               27:  0.016366  0.005455  0.016366
                               28:  0.016366  0.005455  0.027277
                               29:  0.016366  0.005455  0.038188
                               30:  0.016366  0.005455  0.049099
                               31:  0.016366  0.016366  0.005455
                               32:  0.016366  0.016366  0.016366
                               33:  0.016366  0.016366  0.027277
                               34:  0.016366  0.016366  0.038188
                               35:  0.016366  0.016366  0.049099
                               36:  0.016366  0.027277  0.005455
                               37:  0.016366  0.027277  0.016366
                               38:  0.016366  0.027277  0.027277
                               39:  0.016366  0.027277  0.038188
                               40:  0.016366  0.027277  0.049099
                               41:  0.016366  0.038188  0.005455
                               42:  0.016366  0.038188  0.016366
                               43:  0.016366  0.038188  0.027277
                               44:  0.016366  0.038188  0.038188
                               45:  0.016366  0.038188  0.049099
                               46:  0.016366  0.049099  0.005455
                               47:  0.016366  0.049099  0.016366
                               48:  0.016366  0.049099  0.027277
                               49:  0.016366  0.049099  0.038188
                               50:  0.016366  0.049099  0.049099
                               51:  0.027277  0.005455  0.005455
                               52:  0.027277  0.005455  0.016366
                               53:  0.027277  0.005455  0.027277
                               54:  0.027277  0.005455  0.038188
                               55:  0.027277  0.005455  0.049099
                               56:  0.027277  0.016366  0.005455
                               57:  0.027277  0.016366  0.016366
                               58:  0.027277  0.016366  0.027277
                               59:  0.027277  0.016366  0.038188
                               60:  0.027277  0.016366  0.049099
                               61:  0.027277  0.027277  0.005455
                               62:  0.027277  0.027277  0.016366
                               63:  0.027277  0.027277  0.027277

Extra options:
                             Mulliken analysis
                             Force calculation
Force type                   original

--------------------------------------------------------------------------------

***  Geometry step: 0

 iSCC Total electronic   Diff electronic      SCC error    
    1    0.00000000E+00    0.00000000E+00    0.75011434E+00
    2   -0.74885765E+02   -0.74885765E+02    0.43749744E+00
    3   -0.74946218E+02   -0.60453082E-01    0.34148676E-01
    4   -0.74972316E+02   -0.26097955E-01    0.17557305E-01
    5   -0.74972735E+02   -0.41881638E-03    0.85526821E-02
    6   -0.74972742E+02   -0.70687457E-05    0.24403690E-02
    7   -0.74972745E+02   -0.29893480E-05    0.73192215E-03
    8   -0.74972746E+02   -0.99605455E-06    0.33289206E-03
    9   -0.74972746E+02   -0.44401460E-07    0.12842357E-03
   10   -0.74972746E+02   -0.37293688E-08    0.28725621E-04
   11   -0.74972746E+02   -0.64679284E-09    0.14686495E-04
   12   -0.74972746E+02   -0.20347102E-09    0.26359228E-05
   13   -0.74972746E+02   -0.46753712E-11    0.43282906E-06
   14   -0.74972746E+02   -0.75317530E-12    0.20919381E-06
   15   -0.74972746E+02   -0.42632564E-13    0.15687315E-06
   16   -0.74972746E+02   -0.28421709E-13    0.46499000E-07
   17   -0.74972746E+02    0.00000000E+00    0.77475892E-08
   18   -0.74972746E+02    0.00000000E+00    0.15624466E-08
   19   -0.74972746E+02    0.14210855E-13    0.76782558E-09
   20   -0.74972746E+02   -0.14210855E-13    0.41785353E-09
>> Charges saved for restart in charges.bin
   21   -0.74972746E+02    0.14210855E-13    0.46847859E-10
>> Charges saved for restart in charges.bin

Total Energy:                      -74.9727460372 H        -2040.1122 eV
Extrapolated to 0K:                -74.9727460372 H        -2040.1122 eV
Total Mermin free energy:          -74.9727460372 H        -2040.1122 eV
Force related energy:              -74.9727460372 H        -2040.1122 eV

Volume:                              0.615910E+04 au^3   0.912684E+03 A^3
Pressure:                           -0.259252E-03 au    -0.762746E+10 Pa

--------------------------------------------------------------------------------
DFTB+ running times                          cpu [s]             wall clock [s]
--------------------------------------------------------------------------------
Pre-SCC initialisation                 +       0.04 (  0.0%)       0.01 (  0.0%)
SCC                                    +     213.60 ( 97.8%)     121.69 ( 99.7%)
Post-SCC processing                    +       4.84 (  2.2%)       0.41 (  0.3%)
Post-geometry optimisation             +       0.03 (  0.0%)       0.00 (  0.0%)
--------------------------------------------------------------------------------
Missing                                +       0.00 (  0.0%)       0.00 (  0.0%)
Total                                  =     218.51 (100.0%)     122.11 (100.0%)
--------------------------------------------------------------------------------
