|===============================================================================
|
|  DFTB+ development version (commit: d61a5eeb, base: 22.1)
|
|  Copyright (C) 2006 - 2022  DFTB+ developers group
|
|===============================================================================
|
|  When publishing results obtained with DFTB+, please cite the following
|  reference:
|
|  * DFTB+, a software package for efficient approximate density functional
|    theory based atomistic simulations, J. Chem. Phys. 152, 124101 (2020).
|    [doi: 10.1063/1.5143190]
|
|  You should also cite additional publications crediting the parametrization
|  data you use. Please consult the documentation of the SK-files for the
|  references.
|
|===============================================================================

Reading input file 'dftb_in.hsd'
Parser version: 11

--------------------------------------------------------------------------------
***  Converting input from parser version  3 to parser version 11 ...
WARNING!
-> Keyword moved to Analysis block.
Path: dftbplusinput/Options/MullikenAnalysis
Line: 34-34 (File: dftb_in.hsd)

WARNING!
-> Keyword moved to Analysis block.
Path: dftbplusinput/Options/AtomResolvedEnergies
Line: 36-36 (File: dftb_in.hsd)

WARNING!
-> Keyword moved to Analysis block.
Path: dftbplusinput/Options/CalculateForces
Line: 33-33 (File: dftb_in.hsd)

WARNING!
-> Adding legacy step size for finite difference differentiation
Path: dftbplusinput/Hamiltonian/DFTB/Differentiation

***  Done.

Reading SK-files:
../../slko/Li-Li.skf
../../slko/Li-P.skf
../../slko/Li-S.skf
../../slko/Li-Cl.skf
../../slko/P-P.skf
../../slko/P-S.skf
../../slko/P-Cl.skf
../../slko/S-S.skf
../../slko/S-Cl.skf
../../slko/Cl-Cl.skf
Done.


Processed input in HSD format written to 'dftb_pin.hsd'

Starting initialization...
--------------------------------------------------------------------------------
WARNING!
-> Dipole printed for extended system : value printed is not well defined
OpenMP threads:              12
Chosen random seed:          607105828
Mode:                        Static calculation
Self consistent charges:     Yes
SCC-tolerance:                 0.100000E-09
Max. scc iterations:                    100
Shell resolved Hubbard:      No
Spin polarisation:           No
Nr. of up electrons:            96.000000
Nr. of down electrons:          96.000000
Periodic boundaries:         Yes
Electronic solver:           Relatively robust
Mixer:                       Broyden mixer
Mixing parameter:                  0.200000
Maximal SCC-cycles:                     100
Nr. of chrg. vec. in memory:            100
Electronic temperature:              0.950045E-03 H      0.258520E-01 eV
Initial charges:             Set automatically (system chrg:   0.000E+00)
Included shells:            Li:  s, p
                             P:  s, p, d
                             S:  s, p, d
                            Cl:  s, p, d
K-points and weights:           1:  0.100000  0.100000  0.100000     0.016000
                                2:  0.100000  0.100000  0.300000     0.016000
                                3:  0.100000  0.100000  0.500000     0.016000
                                4:  0.100000  0.100000  0.700000     0.016000
                                5:  0.100000  0.100000  0.900000     0.016000
                                6:  0.100000  0.300000  0.100000     0.016000
                                7:  0.100000  0.300000  0.300000     0.016000
                                8:  0.100000  0.300000  0.500000     0.016000
                                9:  0.100000  0.300000  0.700000     0.016000
                               10:  0.100000  0.300000  0.900000     0.016000
                               11:  0.100000  0.500000  0.100000     0.016000
                               12:  0.100000  0.500000  0.300000     0.016000
                               13:  0.100000  0.500000  0.500000     0.016000
                               14:  0.100000  0.500000  0.700000     0.016000
                               15:  0.100000  0.500000  0.900000     0.016000
                               16:  0.100000  0.700000  0.100000     0.016000
                               17:  0.100000  0.700000  0.300000     0.016000
                               18:  0.100000  0.700000  0.500000     0.016000
                               19:  0.100000  0.700000  0.700000     0.016000
                               20:  0.100000  0.700000  0.900000     0.016000
                               21:  0.100000  0.900000  0.100000     0.016000
                               22:  0.100000  0.900000  0.300000     0.016000
                               23:  0.100000  0.900000  0.500000     0.016000
                               24:  0.100000  0.900000  0.700000     0.016000
                               25:  0.100000  0.900000  0.900000     0.016000
                               26:  0.300000  0.100000  0.100000     0.016000
                               27:  0.300000  0.100000  0.300000     0.016000
                               28:  0.300000  0.100000  0.500000     0.016000
                               29:  0.300000  0.100000  0.700000     0.016000
                               30:  0.300000  0.100000  0.900000     0.016000
                               31:  0.300000  0.300000  0.100000     0.016000
                               32:  0.300000  0.300000  0.300000     0.016000
                               33:  0.300000  0.300000  0.500000     0.016000
                               34:  0.300000  0.300000  0.700000     0.016000
                               35:  0.300000  0.300000  0.900000     0.016000
                               36:  0.300000  0.500000  0.100000     0.016000
                               37:  0.300000  0.500000  0.300000     0.016000
                               38:  0.300000  0.500000  0.500000     0.016000
                               39:  0.300000  0.500000  0.700000     0.016000
                               40:  0.300000  0.500000  0.900000     0.016000
                               41:  0.300000  0.700000  0.100000     0.016000
                               42:  0.300000  0.700000  0.300000     0.016000
                               43:  0.300000  0.700000  0.500000     0.016000
                               44:  0.300000  0.700000  0.700000     0.016000
                               45:  0.300000  0.700000  0.900000     0.016000
                               46:  0.300000  0.900000  0.100000     0.016000
                               47:  0.300000  0.900000  0.300000     0.016000
                               48:  0.300000  0.900000  0.500000     0.016000
                               49:  0.300000  0.900000  0.700000     0.016000
                               50:  0.300000  0.900000  0.900000     0.016000
                               51:  0.500000  0.100000  0.100000     0.016000
                               52:  0.500000  0.100000  0.300000     0.016000
                               53:  0.500000  0.100000  0.500000     0.016000
                               54:  0.500000  0.100000  0.700000     0.016000
                               55:  0.500000  0.100000  0.900000     0.016000
                               56:  0.500000  0.300000  0.100000     0.016000
                               57:  0.500000  0.300000  0.300000     0.016000
                               58:  0.500000  0.300000  0.500000     0.016000
                               59:  0.500000  0.300000  0.700000     0.016000
                               60:  0.500000  0.300000  0.900000     0.016000
                               61:  0.500000  0.500000  0.100000     0.016000
                               62:  0.500000  0.500000  0.300000     0.016000
                               63:  0.500000  0.500000  0.500000     0.008000

K-points in absolute space:     1:  0.005400  0.005400  0.005400
                                2:  0.005400  0.005400  0.016201
                                3:  0.005400  0.005400  0.027002
                                4:  0.005400  0.005400  0.037802
                                5:  0.005400  0.005400  0.048603
                                6:  0.005400  0.016201  0.005400
                                7:  0.005400  0.016201  0.016201
                                8:  0.005400  0.016201  0.027002
                                9:  0.005400  0.016201  0.037802
                               10:  0.005400  0.016201  0.048603
                               11:  0.005400  0.027002  0.005400
                               12:  0.005400  0.027002  0.016201
                               13:  0.005400  0.027002  0.027002
                               14:  0.005400  0.027002  0.037802
                               15:  0.005400  0.027002  0.048603
                               16:  0.005400  0.037802  0.005400
                               17:  0.005400  0.037802  0.016201
                               18:  0.005400  0.037802  0.027002
                               19:  0.005400  0.037802  0.037802
                               20:  0.005400  0.037802  0.048603
                               21:  0.005400  0.048603  0.005400
                               22:  0.005400  0.048603  0.016201
                               23:  0.005400  0.048603  0.027002
                               24:  0.005400  0.048603  0.037802
                               25:  0.005400  0.048603  0.048603
                               26:  0.016201  0.005400  0.005400
                               27:  0.016201  0.005400  0.016201
                               28:  0.016201  0.005400  0.027002
                               29:  0.016201  0.005400  0.037802
                               30:  0.016201  0.005400  0.048603
                               31:  0.016201  0.016201  0.005400
                               32:  0.016201  0.016201  0.016201
                               33:  0.016201  0.016201  0.027002
                               34:  0.016201  0.016201  0.037802
                               35:  0.016201  0.016201  0.048603
                               36:  0.016201  0.027002  0.005400
                               37:  0.016201  0.027002  0.016201
                               38:  0.016201  0.027002  0.027002
                               39:  0.016201  0.027002  0.037802
                               40:  0.016201  0.027002  0.048603
                               41:  0.016201  0.037802  0.005400
                               42:  0.016201  0.037802  0.016201
                               43:  0.016201  0.037802  0.027002
                               44:  0.016201  0.037802  0.037802
                               45:  0.016201  0.037802  0.048603
                               46:  0.016201  0.048603  0.005400
                               47:  0.016201  0.048603  0.016201
                               48:  0.016201  0.048603  0.027002
                               49:  0.016201  0.048603  0.037802
                               50:  0.016201  0.048603  0.048603
                               51:  0.027002  0.005400  0.005400
                               52:  0.027002  0.005400  0.016201
                               53:  0.027002  0.005400  0.027002
                               54:  0.027002  0.005400  0.037802
                               55:  0.027002  0.005400  0.048603
                               56:  0.027002  0.016201  0.005400
                               57:  0.027002  0.016201  0.016201
                               58:  0.027002  0.016201  0.027002
                               59:  0.027002  0.016201  0.037802
                               60:  0.027002  0.016201  0.048603
                               61:  0.027002  0.027002  0.005400
                               62:  0.027002  0.027002  0.016201
                               63:  0.027002  0.027002  0.027002

Extra options:
                             Mulliken analysis
                             Force calculation
Force type                   original

--------------------------------------------------------------------------------

***  Geometry step: 0

 iSCC Total electronic   Diff electronic      SCC error    
    1    0.00000000E+00    0.00000000E+00    0.74230939E+00
    2   -0.74832465E+02   -0.74832465E+02    0.42913798E+00
    3   -0.74894109E+02   -0.61643671E-01    0.38478785E-01
    4   -0.74920585E+02   -0.26476674E-01    0.19238957E-01
    5   -0.74920993E+02   -0.40743967E-03    0.78921822E-02
    6   -0.74921001E+02   -0.82087200E-05    0.24412435E-02
    7   -0.74921007E+02   -0.53971719E-05    0.94843707E-03
    8   -0.74921007E+02   -0.91259461E-06    0.41080672E-03
    9   -0.74921007E+02   -0.41125702E-07    0.12872333E-03
   10   -0.74921007E+02   -0.70658359E-08    0.33343002E-04
   11   -0.74921007E+02   -0.11465175E-08    0.16706309E-04
   12   -0.74921007E+02   -0.18941648E-09    0.26621309E-05
   13   -0.74921007E+02   -0.66791017E-11    0.51075574E-06
   14   -0.74921007E+02   -0.85265128E-12    0.22578814E-06
   15   -0.74921007E+02   -0.85265128E-13    0.17256207E-06
   16   -0.74921007E+02    0.14210855E-13    0.45165526E-07
   17   -0.74921007E+02   -0.14210855E-13    0.75007698E-08
   18   -0.74921007E+02    0.00000000E+00    0.14820819E-08
   19   -0.74921007E+02    0.00000000E+00    0.88992680E-09
   20   -0.74921007E+02    0.00000000E+00    0.44085324E-09
>> Charges saved for restart in charges.bin
   21   -0.74921007E+02    0.14210855E-13    0.47260862E-10
>> Charges saved for restart in charges.bin

Total Energy:                      -74.9210074724 H        -2038.7043 eV
Extrapolated to 0K:                -74.9210074724 H        -2038.7043 eV
Total Mermin free energy:          -74.9210074724 H        -2038.7043 eV
Force related energy:              -74.9210074724 H        -2038.7043 eV

Volume:                              0.634957E+04 au^3   0.940910E+03 A^3
Pressure:                           -0.283503E-03 au    -0.834095E+10 Pa

--------------------------------------------------------------------------------
DFTB+ running times                          cpu [s]             wall clock [s]
--------------------------------------------------------------------------------
Pre-SCC initialisation                 +       0.04 (  0.0%)       0.01 (  0.0%)
SCC                                    +     213.46 ( 97.8%)     121.72 ( 99.7%)
Post-SCC processing                    +       4.82 (  2.2%)       0.41 (  0.3%)
--------------------------------------------------------------------------------
Missing                                +       0.00 (  0.0%)       0.00 (  0.0%)
Total                                  =     218.33 (100.0%)     122.14 (100.0%)
--------------------------------------------------------------------------------
