|===============================================================================
|
|  DFTB+ development version (commit: d61a5eeb, base: 22.1)
|
|  Copyright (C) 2006 - 2022  DFTB+ developers group
|
|===============================================================================
|
|  When publishing results obtained with DFTB+, please cite the following
|  reference:
|
|  * DFTB+, a software package for efficient approximate density functional
|    theory based atomistic simulations, J. Chem. Phys. 152, 124101 (2020).
|    [doi: 10.1063/1.5143190]
|
|  You should also cite additional publications crediting the parametrization
|  data you use. Please consult the documentation of the SK-files for the
|  references.
|
|===============================================================================

Reading input file 'dftb_in.hsd'
Parser version: 11

--------------------------------------------------------------------------------
***  Converting input from parser version  3 to parser version 11 ...
WARNING!
-> Keyword moved to Analysis block.
Path: dftbplusinput/Options/MullikenAnalysis
Line: 31-31 (File: dftb_in.hsd)

WARNING!
-> Keyword moved to Analysis block.
Path: dftbplusinput/Options/AtomResolvedEnergies
Line: 33-33 (File: dftb_in.hsd)

WARNING!
-> Adding legacy step size for finite difference differentiation
Path: dftbplusinput/Hamiltonian/DFTB/Differentiation

***  Done.

Reading SK-files:
../../slko/Li-Li.skf
../../slko/Li-P.skf
../../slko/P-P.skf
Done.


Processed input in HSD format written to 'dftb_pin.hsd'

Starting initialization...
--------------------------------------------------------------------------------
WARNING!
-> Dipole printed for extended system : value printed is not well defined
OpenMP threads:              12
Chosen random seed:          609473939
Mode:                        Static calculation
Self consistent charges:     Yes
SCC-tolerance:                 0.100000E-05
Max. scc iterations:                    100
Shell resolved Hubbard:      No
Spin polarisation:           No
Nr. of up electrons:             8.000000
Nr. of down electrons:           8.000000
Periodic boundaries:         Yes
Electronic solver:           Relatively robust
Mixer:                       Broyden mixer
Mixing parameter:                  0.200000
Maximal SCC-cycles:                     100
Nr. of chrg. vec. in memory:            100
Electronic temperature:              0.950045E-03 H      0.258520E-01 eV
Initial charges:             Set automatically (system chrg:   0.000E+00)
Included shells:            Li:  s, p
                             P:  s, p, d
K-points and weights:           1:  0.166667  0.166667  0.166667     0.074074
                                2:  0.166667  0.166667  0.500000     0.074074
                                3:  0.166667  0.166667  0.833333     0.074074
                                4:  0.166667  0.500000  0.166667     0.074074
                                5:  0.166667  0.500000  0.500000     0.074074
                                6:  0.166667  0.500000  0.833333     0.074074
                                7:  0.166667  0.833333  0.166667     0.074074
                                8:  0.166667  0.833333  0.500000     0.074074
                                9:  0.166667  0.833333  0.833333     0.074074
                               10:  0.500000  0.166667  0.166667     0.074074
                               11:  0.500000  0.166667  0.500000     0.074074
                               12:  0.500000  0.166667  0.833333     0.074074
                               13:  0.500000  0.500000  0.166667     0.074074
                               14:  0.500000  0.500000  0.500000     0.037037

K-points in absolute space:     1:  0.025086  0.043450  0.014036
                                2:  0.025086  0.043450  0.042107
                                3:  0.025086  0.043450  0.070179
                                4:  0.025086  0.101384  0.014036
                                5:  0.025086  0.101384  0.042107
                                6:  0.025086  0.101384  0.070179
                                7:  0.025086  0.159317  0.014036
                                8:  0.025086  0.159317  0.042107
                                9:  0.025086  0.159317  0.070179
                               10:  0.075258  0.072417  0.014036
                               11:  0.075258  0.072417  0.042107
                               12:  0.075258  0.072417  0.070179
                               13:  0.075258  0.130350  0.014036
                               14:  0.075258  0.130350  0.042107

Extra options:
                             Mulliken analysis

--------------------------------------------------------------------------------

***  Geometry step: 0

 iSCC Total electronic   Diff electronic      SCC error    
    1    0.00000000E+00    0.00000000E+00    0.97027539E+00
    2   -0.50022560E+01   -0.50022560E+01    0.72062659E+00
    3   -0.50048465E+01   -0.25904938E-02    0.82521701E-02
    4   -0.50080801E+01   -0.32335773E-02    0.51594503E-02
    5   -0.50080802E+01   -0.85056792E-07    0.10124238E-03
    6   -0.50080802E+01   -0.35889327E-08    0.43898568E-06
>> Charges saved for restart in charges.bin

Total Energy:                       -5.0080802062 H         -136.2768 eV
Extrapolated to 0K:                 -5.0080802062 H         -136.2768 eV
Total Mermin free energy:           -5.0080802062 H         -136.2768 eV
Force related energy:               -5.0080802062 H         -136.2768 eV


--------------------------------------------------------------------------------
DFTB+ running times                          cpu [s]             wall clock [s]
--------------------------------------------------------------------------------
Pre-SCC initialisation                 +       0.02 (  1.8%)       0.00 (  6.1%)
SCC                                    +       0.89 ( 97.8%)       0.08 ( 93.9%)
--------------------------------------------------------------------------------
Missing                                +       0.00 (  0.4%)       0.00 (  0.0%)
Total                                  =       0.91 (100.0%)       0.08 (100.0%)
--------------------------------------------------------------------------------
