|===============================================================================
|
|  DFTB+ development version (commit: d61a5eeb, base: 22.1)
|
|  Copyright (C) 2006 - 2022  DFTB+ developers group
|
|===============================================================================
|
|  When publishing results obtained with DFTB+, please cite the following
|  reference:
|
|  * DFTB+, a software package for efficient approximate density functional
|    theory based atomistic simulations, J. Chem. Phys. 152, 124101 (2020).
|    [doi: 10.1063/1.5143190]
|
|  You should also cite additional publications crediting the parametrization
|  data you use. Please consult the documentation of the SK-files for the
|  references.
|
|===============================================================================

Reading input file 'dftb_in.hsd'
Parser version: 11

--------------------------------------------------------------------------------
***  Converting input from parser version  3 to parser version 11 ...
WARNING!
-> Keyword moved to Analysis block.
Path: dftbplusinput/Options/MullikenAnalysis
Line: 31-31 (File: dftb_in.hsd)

WARNING!
-> Keyword moved to Analysis block.
Path: dftbplusinput/Options/AtomResolvedEnergies
Line: 33-33 (File: dftb_in.hsd)

WARNING!
-> Adding legacy step size for finite difference differentiation
Path: dftbplusinput/Hamiltonian/DFTB/Differentiation

***  Done.

Reading SK-files:
../../slko/Li-Li.skf
../../slko/Li-P.skf
../../slko/P-P.skf
Done.


Processed input in HSD format written to 'dftb_pin.hsd'

Starting initialization...
--------------------------------------------------------------------------------
WARNING!
-> Dipole printed for extended system : value printed is not well defined
OpenMP threads:              12
Chosen random seed:          609474510
Mode:                        Static calculation
Self consistent charges:     Yes
SCC-tolerance:                 0.100000E-05
Max. scc iterations:                    100
Shell resolved Hubbard:      No
Spin polarisation:           No
Nr. of up electrons:             8.000000
Nr. of down electrons:           8.000000
Periodic boundaries:         Yes
Electronic solver:           Relatively robust
Mixer:                       Broyden mixer
Mixing parameter:                  0.200000
Maximal SCC-cycles:                     100
Nr. of chrg. vec. in memory:            100
Electronic temperature:              0.950045E-03 H      0.258520E-01 eV
Initial charges:             Set automatically (system chrg:   0.000E+00)
Included shells:            Li:  s, p
                             P:  s, p, d
K-points and weights:           1:  0.166667  0.166667  0.166667     0.074074
                                2:  0.166667  0.166667  0.500000     0.074074
                                3:  0.166667  0.166667  0.833333     0.074074
                                4:  0.166667  0.500000  0.166667     0.074074
                                5:  0.166667  0.500000  0.500000     0.074074
                                6:  0.166667  0.500000  0.833333     0.074074
                                7:  0.166667  0.833333  0.166667     0.074074
                                8:  0.166667  0.833333  0.500000     0.074074
                                9:  0.166667  0.833333  0.833333     0.074074
                               10:  0.500000  0.166667  0.166667     0.074074
                               11:  0.500000  0.166667  0.500000     0.074074
                               12:  0.500000  0.166667  0.833333     0.074074
                               13:  0.500000  0.500000  0.166667     0.074074
                               14:  0.500000  0.500000  0.500000     0.037037

K-points in absolute space:     1:  0.020615  0.035707  0.011534
                                2:  0.020615  0.035707  0.034603
                                3:  0.020615  0.035707  0.057672
                                4:  0.020615  0.083315  0.011534
                                5:  0.020615  0.083315  0.034603
                                6:  0.020615  0.083315  0.057672
                                7:  0.020615  0.130924  0.011534
                                8:  0.020615  0.130924  0.034603
                                9:  0.020615  0.130924  0.057672
                               10:  0.061846  0.059511  0.011534
                               11:  0.061846  0.059511  0.034603
                               12:  0.061846  0.059511  0.057672
                               13:  0.061846  0.107120  0.011534
                               14:  0.061846  0.107120  0.034603

Extra options:
                             Mulliken analysis

--------------------------------------------------------------------------------

***  Geometry step: 0

 iSCC Total electronic   Diff electronic      SCC error    
    1    0.00000000E+00    0.00000000E+00    0.71246578E+00
    2   -0.51751799E+01   -0.51751799E+01    0.48402168E+00
    3   -0.51804094E+01   -0.52294753E-02    0.24007202E-01
    4   -0.51849685E+01   -0.45591245E-02    0.95573152E-02
    5   -0.51849675E+01    0.97833584E-06    0.31154243E-03
    6   -0.51849694E+01   -0.18872533E-05    0.21826804E-05
    7   -0.51849694E+01   -0.19162254E-08    0.33884007E-11
>> Charges saved for restart in charges.bin

Total Energy:                       -5.1849694292 H         -141.0902 eV
Extrapolated to 0K:                 -5.1849694292 H         -141.0902 eV
Total Mermin free energy:           -5.1849694292 H         -141.0902 eV
Force related energy:               -5.1849694292 H         -141.0902 eV


--------------------------------------------------------------------------------
DFTB+ running times                          cpu [s]             wall clock [s]
--------------------------------------------------------------------------------
SCC                                    +       0.97 ( 99.0%)       0.08 ( 95.4%)
--------------------------------------------------------------------------------
Missing                                +       0.01 (  1.0%)       0.00 (  4.6%)
Total                                  =       0.98 (100.0%)       0.09 (100.0%)
--------------------------------------------------------------------------------
