|===============================================================================
|
|  DFTB+ development version (commit: d61a5eeb, base: 22.1)
|
|  Copyright (C) 2006 - 2022  DFTB+ developers group
|
|===============================================================================
|
|  When publishing results obtained with DFTB+, please cite the following
|  reference:
|
|  * DFTB+, a software package for efficient approximate density functional
|    theory based atomistic simulations, J. Chem. Phys. 152, 124101 (2020).
|    [doi: 10.1063/1.5143190]
|
|  You should also cite additional publications crediting the parametrization
|  data you use. Please consult the documentation of the SK-files for the
|  references.
|
|===============================================================================

Reading input file 'dftb_in.hsd'
Parser version: 11

--------------------------------------------------------------------------------
***  Converting input from parser version  3 to parser version 11 ...
WARNING!
-> Keyword moved to Analysis block.
Path: dftbplusinput/Options/MullikenAnalysis
Line: 31-31 (File: dftb_in.hsd)

WARNING!
-> Keyword moved to Analysis block.
Path: dftbplusinput/Options/AtomResolvedEnergies
Line: 33-33 (File: dftb_in.hsd)

WARNING!
-> Adding legacy step size for finite difference differentiation
Path: dftbplusinput/Hamiltonian/DFTB/Differentiation

***  Done.

Reading SK-files:
../../slko/Li-Li.skf
../../slko/Li-P.skf
../../slko/P-P.skf
Done.


Processed input in HSD format written to 'dftb_pin.hsd'

Starting initialization...
--------------------------------------------------------------------------------
WARNING!
-> Dipole printed for extended system : value printed is not well defined
OpenMP threads:              12
Chosen random seed:          609474133
Mode:                        Static calculation
Self consistent charges:     Yes
SCC-tolerance:                 0.100000E-05
Max. scc iterations:                    100
Shell resolved Hubbard:      No
Spin polarisation:           No
Nr. of up electrons:             8.000000
Nr. of down electrons:           8.000000
Periodic boundaries:         Yes
Electronic solver:           Relatively robust
Mixer:                       Broyden mixer
Mixing parameter:                  0.200000
Maximal SCC-cycles:                     100
Nr. of chrg. vec. in memory:            100
Electronic temperature:              0.950045E-03 H      0.258520E-01 eV
Initial charges:             Set automatically (system chrg:   0.000E+00)
Included shells:            Li:  s, p
                             P:  s, p, d
K-points and weights:           1:  0.166667  0.166667  0.166667     0.074074
                                2:  0.166667  0.166667  0.500000     0.074074
                                3:  0.166667  0.166667  0.833333     0.074074
                                4:  0.166667  0.500000  0.166667     0.074074
                                5:  0.166667  0.500000  0.500000     0.074074
                                6:  0.166667  0.500000  0.833333     0.074074
                                7:  0.166667  0.833333  0.166667     0.074074
                                8:  0.166667  0.833333  0.500000     0.074074
                                9:  0.166667  0.833333  0.833333     0.074074
                               10:  0.500000  0.166667  0.166667     0.074074
                               11:  0.500000  0.166667  0.500000     0.074074
                               12:  0.500000  0.166667  0.833333     0.074074
                               13:  0.500000  0.500000  0.166667     0.074074
                               14:  0.500000  0.500000  0.500000     0.037037

K-points in absolute space:     1:  0.023395  0.040521  0.013089
                                2:  0.023395  0.040521  0.039268
                                3:  0.023395  0.040521  0.065447
                                4:  0.023395  0.094549  0.013089
                                5:  0.023395  0.094549  0.039268
                                6:  0.023395  0.094549  0.065447
                                7:  0.023395  0.148577  0.013089
                                8:  0.023395  0.148577  0.039268
                                9:  0.023395  0.148577  0.065447
                               10:  0.070184  0.067535  0.013089
                               11:  0.070184  0.067535  0.039268
                               12:  0.070184  0.067535  0.065447
                               13:  0.070184  0.121563  0.013089
                               14:  0.070184  0.121563  0.039268

Extra options:
                             Mulliken analysis

--------------------------------------------------------------------------------

***  Geometry step: 0

 iSCC Total electronic   Diff electronic      SCC error    
    1    0.00000000E+00    0.00000000E+00    0.82667254E+00
    2   -0.51017493E+01   -0.51017493E+01    0.59988672E+00
    3   -0.51047995E+01   -0.30501966E-02    0.18702656E-01
    4   -0.51082428E+01   -0.34432239E-02    0.96104233E-02
    5   -0.51082428E+01   -0.77335574E-07    0.13071463E-03
    6   -0.51082430E+01   -0.12605834E-06    0.73805611E-06
>> Charges saved for restart in charges.bin

Total Energy:                       -5.1082429589 H         -139.0024 eV
Extrapolated to 0K:                 -5.1082429589 H         -139.0024 eV
Total Mermin free energy:           -5.1082429589 H         -139.0024 eV
Force related energy:               -5.1082429589 H         -139.0024 eV


--------------------------------------------------------------------------------
DFTB+ running times                          cpu [s]             wall clock [s]
--------------------------------------------------------------------------------
Pre-SCC initialisation                 +       0.02 (  1.7%)       0.00 (  6.4%)
SCC                                    +       0.87 ( 98.1%)       0.07 ( 93.6%)
--------------------------------------------------------------------------------
Missing                                +       0.00 (  0.1%)       0.00 (  0.0%)
Total                                  =       0.88 (100.0%)       0.08 (100.0%)
--------------------------------------------------------------------------------
