|===============================================================================
|
|  DFTB+ development version (commit: d61a5eeb, base: 22.1)
|
|  Copyright (C) 2006 - 2022  DFTB+ developers group
|
|===============================================================================
|
|  When publishing results obtained with DFTB+, please cite the following
|  reference:
|
|  * DFTB+, a software package for efficient approximate density functional
|    theory based atomistic simulations, J. Chem. Phys. 152, 124101 (2020).
|    [doi: 10.1063/1.5143190]
|
|  You should also cite additional publications crediting the parametrization
|  data you use. Please consult the documentation of the SK-files for the
|  references.
|
|===============================================================================

Reading input file 'dftb_in.hsd'
Parser version: 11

--------------------------------------------------------------------------------
***  Converting input from parser version  3 to parser version 11 ...
WARNING!
-> Keyword moved to Analysis block.
Path: dftbplusinput/Options/MullikenAnalysis
Line: 31-31 (File: dftb_in.hsd)

WARNING!
-> Keyword moved to Analysis block.
Path: dftbplusinput/Options/AtomResolvedEnergies
Line: 33-33 (File: dftb_in.hsd)

WARNING!
-> Adding legacy step size for finite difference differentiation
Path: dftbplusinput/Hamiltonian/DFTB/Differentiation

***  Done.

Reading SK-files:
../../slko/Li-Li.skf
../../slko/Li-P.skf
../../slko/P-P.skf
Done.


Processed input in HSD format written to 'dftb_pin.hsd'

Starting initialization...
--------------------------------------------------------------------------------
WARNING!
-> Dipole printed for extended system : value printed is not well defined
OpenMP threads:              12
Chosen random seed:          609474611
Mode:                        Static calculation
Self consistent charges:     Yes
SCC-tolerance:                 0.100000E-05
Max. scc iterations:                    100
Shell resolved Hubbard:      No
Spin polarisation:           No
Nr. of up electrons:             8.000000
Nr. of down electrons:           8.000000
Periodic boundaries:         Yes
Electronic solver:           Relatively robust
Mixer:                       Broyden mixer
Mixing parameter:                  0.200000
Maximal SCC-cycles:                     100
Nr. of chrg. vec. in memory:            100
Electronic temperature:              0.950045E-03 H      0.258520E-01 eV
Initial charges:             Set automatically (system chrg:   0.000E+00)
Included shells:            Li:  s, p
                             P:  s, p, d
K-points and weights:           1:  0.166667  0.166667  0.166667     0.074074
                                2:  0.166667  0.166667  0.500000     0.074074
                                3:  0.166667  0.166667  0.833333     0.074074
                                4:  0.166667  0.500000  0.166667     0.074074
                                5:  0.166667  0.500000  0.500000     0.074074
                                6:  0.166667  0.500000  0.833333     0.074074
                                7:  0.166667  0.833333  0.166667     0.074074
                                8:  0.166667  0.833333  0.500000     0.074074
                                9:  0.166667  0.833333  0.833333     0.074074
                               10:  0.500000  0.166667  0.166667     0.074074
                               11:  0.500000  0.166667  0.500000     0.074074
                               12:  0.500000  0.166667  0.833333     0.074074
                               13:  0.500000  0.500000  0.166667     0.074074
                               14:  0.500000  0.500000  0.500000     0.037037

K-points in absolute space:     1:  0.020021  0.034677  0.011202
                                2:  0.020021  0.034677  0.033605
                                3:  0.020021  0.034677  0.056008
                                4:  0.020021  0.080912  0.011202
                                5:  0.020021  0.080912  0.033605
                                6:  0.020021  0.080912  0.056008
                                7:  0.020021  0.127147  0.011202
                                8:  0.020021  0.127147  0.033605
                                9:  0.020021  0.127147  0.056008
                               10:  0.060062  0.057794  0.011202
                               11:  0.060062  0.057794  0.033605
                               12:  0.060062  0.057794  0.056008
                               13:  0.060062  0.104030  0.011202
                               14:  0.060062  0.104030  0.033605

Extra options:
                             Mulliken analysis

--------------------------------------------------------------------------------

***  Geometry step: 0

 iSCC Total electronic   Diff electronic      SCC error    
    1    0.00000000E+00    0.00000000E+00    0.72342715E+00
    2   -0.51628800E+01   -0.51628800E+01    0.48065381E+00
    3   -0.51693868E+01   -0.65067833E-02    0.25391937E-01
    4   -0.51746245E+01   -0.52376984E-02    0.12327156E-01
    5   -0.51746223E+01    0.21695624E-05    0.43782265E-03
    6   -0.51746259E+01   -0.36220366E-05    0.32234897E-05
    7   -0.51746259E+01   -0.44127217E-08    0.54790616E-11
>> Charges saved for restart in charges.bin

Total Energy:                       -5.1746259211 H         -140.8087 eV
Extrapolated to 0K:                 -5.1746259211 H         -140.8087 eV
Total Mermin free energy:           -5.1746259211 H         -140.8087 eV
Force related energy:               -5.1746259211 H         -140.8087 eV


--------------------------------------------------------------------------------
DFTB+ running times                          cpu [s]             wall clock [s]
--------------------------------------------------------------------------------
Pre-SCC initialisation                 +       0.01 (  1.1%)       0.00 (  3.7%)
SCC                                    +       0.92 ( 98.5%)       0.08 ( 96.3%)
--------------------------------------------------------------------------------
Missing                                +       0.00 (  0.4%)       0.00 (  0.0%)
Total                                  =       0.93 (100.0%)       0.08 (100.0%)
--------------------------------------------------------------------------------
