|===============================================================================
|
|  DFTB+ development version (commit: d61a5eeb, base: 22.1)
|
|  Copyright (C) 2006 - 2022  DFTB+ developers group
|
|===============================================================================
|
|  When publishing results obtained with DFTB+, please cite the following
|  reference:
|
|  * DFTB+, a software package for efficient approximate density functional
|    theory based atomistic simulations, J. Chem. Phys. 152, 124101 (2020).
|    [doi: 10.1063/1.5143190]
|
|  You should also cite additional publications crediting the parametrization
|  data you use. Please consult the documentation of the SK-files for the
|  references.
|
|===============================================================================

Reading input file 'dftb_in.hsd'
Parser version: 11

--------------------------------------------------------------------------------
***  Converting input from parser version  3 to parser version 11 ...
WARNING!
-> Keyword moved to Analysis block.
Path: dftbplusinput/Options/MullikenAnalysis
Line: 31-31 (File: dftb_in.hsd)

WARNING!
-> Keyword moved to Analysis block.
Path: dftbplusinput/Options/AtomResolvedEnergies
Line: 33-33 (File: dftb_in.hsd)

WARNING!
-> Adding legacy step size for finite difference differentiation
Path: dftbplusinput/Hamiltonian/DFTB/Differentiation

***  Done.

Reading SK-files:
../../slko/Li-Li.skf
../../slko/Li-P.skf
../../slko/P-P.skf
Done.


Processed input in HSD format written to 'dftb_pin.hsd'

Starting initialization...
--------------------------------------------------------------------------------
WARNING!
-> Dipole printed for extended system : value printed is not well defined
OpenMP threads:              12
Chosen random seed:          609474034
Mode:                        Static calculation
Self consistent charges:     Yes
SCC-tolerance:                 0.100000E-05
Max. scc iterations:                    100
Shell resolved Hubbard:      No
Spin polarisation:           No
Nr. of up electrons:             8.000000
Nr. of down electrons:           8.000000
Periodic boundaries:         Yes
Electronic solver:           Relatively robust
Mixer:                       Broyden mixer
Mixing parameter:                  0.200000
Maximal SCC-cycles:                     100
Nr. of chrg. vec. in memory:            100
Electronic temperature:              0.950045E-03 H      0.258520E-01 eV
Initial charges:             Set automatically (system chrg:   0.000E+00)
Included shells:            Li:  s, p
                             P:  s, p, d
K-points and weights:           1:  0.166667  0.166667  0.166667     0.074074
                                2:  0.166667  0.166667  0.500000     0.074074
                                3:  0.166667  0.166667  0.833333     0.074074
                                4:  0.166667  0.500000  0.166667     0.074074
                                5:  0.166667  0.500000  0.500000     0.074074
                                6:  0.166667  0.500000  0.833333     0.074074
                                7:  0.166667  0.833333  0.166667     0.074074
                                8:  0.166667  0.833333  0.500000     0.074074
                                9:  0.166667  0.833333  0.833333     0.074074
                               10:  0.500000  0.166667  0.166667     0.074074
                               11:  0.500000  0.166667  0.500000     0.074074
                               12:  0.500000  0.166667  0.833333     0.074074
                               13:  0.500000  0.500000  0.166667     0.074074
                               14:  0.500000  0.500000  0.500000     0.037037

K-points in absolute space:     1:  0.024211  0.041934  0.013546
                                2:  0.024211  0.041934  0.040638
                                3:  0.024211  0.041934  0.067731
                                4:  0.024211  0.097847  0.013546
                                5:  0.024211  0.097847  0.040638
                                6:  0.024211  0.097847  0.067731
                                7:  0.024211  0.153760  0.013546
                                8:  0.024211  0.153760  0.040638
                                9:  0.024211  0.153760  0.067731
                               10:  0.072633  0.069891  0.013546
                               11:  0.072633  0.069891  0.040638
                               12:  0.072633  0.069891  0.067731
                               13:  0.072633  0.125803  0.013546
                               14:  0.072633  0.125803  0.040638

Extra options:
                             Mulliken analysis

--------------------------------------------------------------------------------

***  Geometry step: 0

 iSCC Total electronic   Diff electronic      SCC error    
    1    0.00000000E+00    0.00000000E+00    0.89098778E+00
    2   -0.50553537E+01   -0.50553537E+01    0.65452142E+00
    3   -0.50581541E+01   -0.28003599E-02    0.15811843E-01
    4   -0.50614848E+01   -0.33306982E-02    0.91674768E-02
    5   -0.50614849E+01   -0.90801746E-07    0.11215643E-03
    6   -0.50614849E+01   -0.44266992E-07    0.57931852E-06
>> Charges saved for restart in charges.bin

Total Energy:                       -5.0614849267 H         -137.7300 eV
Extrapolated to 0K:                 -5.0614849267 H         -137.7300 eV
Total Mermin free energy:           -5.0614849267 H         -137.7300 eV
Force related energy:               -5.0614849267 H         -137.7300 eV


--------------------------------------------------------------------------------
DFTB+ running times                          cpu [s]             wall clock [s]
--------------------------------------------------------------------------------
Pre-SCC initialisation                 +       0.07 (  7.1%)       0.01 ( 10.5%)
SCC                                    +       0.89 ( 92.8%)       0.08 ( 88.4%)
--------------------------------------------------------------------------------
Missing                                +       0.00 (  0.1%)       0.00 (  1.2%)
Total                                  =       0.96 (100.0%)       0.09 (100.0%)
--------------------------------------------------------------------------------
