|===============================================================================
|
|  DFTB+ development version (commit: d61a5eeb, base: 22.1)
|
|  Copyright (C) 2006 - 2022  DFTB+ developers group
|
|===============================================================================
|
|  When publishing results obtained with DFTB+, please cite the following
|  reference:
|
|  * DFTB+, a software package for efficient approximate density functional
|    theory based atomistic simulations, J. Chem. Phys. 152, 124101 (2020).
|    [doi: 10.1063/1.5143190]
|
|  You should also cite additional publications crediting the parametrization
|  data you use. Please consult the documentation of the SK-files for the
|  references.
|
|===============================================================================

Reading input file 'dftb_in.hsd'
Parser version: 11

--------------------------------------------------------------------------------
***  Converting input from parser version  3 to parser version 11 ...
WARNING!
-> Keyword moved to Analysis block.
Path: dftbplusinput/Options/MullikenAnalysis
Line: 31-31 (File: dftb_in.hsd)

WARNING!
-> Keyword moved to Analysis block.
Path: dftbplusinput/Options/AtomResolvedEnergies
Line: 33-33 (File: dftb_in.hsd)

WARNING!
-> Adding legacy step size for finite difference differentiation
Path: dftbplusinput/Hamiltonian/DFTB/Differentiation

***  Done.

Reading SK-files:
../../slko/Li-Li.skf
../../slko/Li-P.skf
../../slko/P-P.skf
Done.


Processed input in HSD format written to 'dftb_pin.hsd'

Starting initialization...
--------------------------------------------------------------------------------
WARNING!
-> Dipole printed for extended system : value printed is not well defined
OpenMP threads:              12
Chosen random seed:          609474313
Mode:                        Static calculation
Self consistent charges:     Yes
SCC-tolerance:                 0.100000E-05
Max. scc iterations:                    100
Shell resolved Hubbard:      No
Spin polarisation:           No
Nr. of up electrons:             8.000000
Nr. of down electrons:           8.000000
Periodic boundaries:         Yes
Electronic solver:           Relatively robust
Mixer:                       Broyden mixer
Mixing parameter:                  0.200000
Maximal SCC-cycles:                     100
Nr. of chrg. vec. in memory:            100
Electronic temperature:              0.950045E-03 H      0.258520E-01 eV
Initial charges:             Set automatically (system chrg:   0.000E+00)
Included shells:            Li:  s, p
                             P:  s, p, d
K-points and weights:           1:  0.166667  0.166667  0.166667     0.074074
                                2:  0.166667  0.166667  0.500000     0.074074
                                3:  0.166667  0.166667  0.833333     0.074074
                                4:  0.166667  0.500000  0.166667     0.074074
                                5:  0.166667  0.500000  0.500000     0.074074
                                6:  0.166667  0.500000  0.833333     0.074074
                                7:  0.166667  0.833333  0.166667     0.074074
                                8:  0.166667  0.833333  0.500000     0.074074
                                9:  0.166667  0.833333  0.833333     0.074074
                               10:  0.500000  0.166667  0.166667     0.074074
                               11:  0.500000  0.166667  0.500000     0.074074
                               12:  0.500000  0.166667  0.833333     0.074074
                               13:  0.500000  0.500000  0.166667     0.074074
                               14:  0.500000  0.500000  0.500000     0.037037

K-points in absolute space:     1:  0.021917  0.037962  0.012263
                                2:  0.021917  0.037962  0.036788
                                3:  0.021917  0.037962  0.061314
                                4:  0.021917  0.088577  0.012263
                                5:  0.021917  0.088577  0.036788
                                6:  0.021917  0.088577  0.061314
                                7:  0.021917  0.139193  0.012263
                                8:  0.021917  0.139193  0.036788
                                9:  0.021917  0.139193  0.061314
                               10:  0.065752  0.063269  0.012263
                               11:  0.065752  0.063269  0.036788
                               12:  0.065752  0.063269  0.061314
                               13:  0.065752  0.113885  0.012263
                               14:  0.065752  0.113885  0.036788

Extra options:
                             Mulliken analysis

--------------------------------------------------------------------------------

***  Geometry step: 0

 iSCC Total electronic   Diff electronic      SCC error    
    1    0.00000000E+00    0.00000000E+00    0.74019611E+00
    2   -0.51624010E+01   -0.51624010E+01    0.52177169E+00
    3   -0.51661853E+01   -0.37843163E-02    0.21523344E-01
    4   -0.51699812E+01   -0.37958771E-02    0.86917711E-02
    5   -0.51699811E+01    0.11124031E-06    0.18793715E-03
    6   -0.51699816E+01   -0.52725407E-06    0.12034118E-05
    7   -0.51699816E+01   -0.49941029E-09    0.13713475E-11
>> Charges saved for restart in charges.bin

Total Energy:                       -5.1699816014 H         -140.6824 eV
Extrapolated to 0K:                 -5.1699816014 H         -140.6824 eV
Total Mermin free energy:           -5.1699816014 H         -140.6824 eV
Force related energy:               -5.1699816014 H         -140.6824 eV


--------------------------------------------------------------------------------
DFTB+ running times                          cpu [s]             wall clock [s]
--------------------------------------------------------------------------------
SCC                                    +       0.98 ( 98.9%)       0.08 ( 96.6%)
--------------------------------------------------------------------------------
Missing                                +       0.01 (  1.1%)       0.00 (  3.4%)
Total                                  =       0.99 (100.0%)       0.09 (100.0%)
--------------------------------------------------------------------------------
