|===============================================================================
|
|  DFTB+ development version (commit: d61a5eeb, base: 22.1)
|
|  Copyright (C) 2006 - 2022  DFTB+ developers group
|
|===============================================================================
|
|  When publishing results obtained with DFTB+, please cite the following
|  reference:
|
|  * DFTB+, a software package for efficient approximate density functional
|    theory based atomistic simulations, J. Chem. Phys. 152, 124101 (2020).
|    [doi: 10.1063/1.5143190]
|
|  You should also cite additional publications crediting the parametrization
|  data you use. Please consult the documentation of the SK-files for the
|  references.
|
|===============================================================================

Reading input file 'dftb_in.hsd'
Parser version: 11

--------------------------------------------------------------------------------
***  Converting input from parser version  3 to parser version 11 ...
WARNING!
-> Keyword moved to Analysis block.
Path: dftbplusinput/Options/MullikenAnalysis
Line: 31-31 (File: dftb_in.hsd)

WARNING!
-> Keyword moved to Analysis block.
Path: dftbplusinput/Options/AtomResolvedEnergies
Line: 33-33 (File: dftb_in.hsd)

WARNING!
-> Adding legacy step size for finite difference differentiation
Path: dftbplusinput/Hamiltonian/DFTB/Differentiation

***  Done.

Reading SK-files:
../../slko/Li-Li.skf
../../slko/Li-S.skf
../../slko/S-S.skf
Done.


Processed input in HSD format written to 'dftb_pin.hsd'

Starting initialization...
--------------------------------------------------------------------------------
WARNING!
-> Dipole printed for extended system : value printed is not well defined
OpenMP threads:              12
Chosen random seed:          609472352
Mode:                        Static calculation
Self consistent charges:     Yes
SCC-tolerance:                 0.100000E-05
Max. scc iterations:                    100
Shell resolved Hubbard:      No
Spin polarisation:           No
Nr. of up electrons:            16.000000
Nr. of down electrons:          16.000000
Periodic boundaries:         Yes
Electronic solver:           Relatively robust
Mixer:                       Broyden mixer
Mixing parameter:                  0.200000
Maximal SCC-cycles:                     100
Nr. of chrg. vec. in memory:            100
Electronic temperature:              0.950045E-03 H      0.258520E-01 eV
Initial charges:             Set automatically (system chrg:   0.000E+00)
Included shells:            Li:  s, p
                             S:  s, p, d
K-points and weights:           1:  0.166667  0.166667  0.166667     0.074074
                                2:  0.166667  0.166667  0.500000     0.074074
                                3:  0.166667  0.166667  0.833333     0.074074
                                4:  0.166667  0.500000  0.166667     0.074074
                                5:  0.166667  0.500000  0.500000     0.074074
                                6:  0.166667  0.500000  0.833333     0.074074
                                7:  0.166667  0.833333  0.166667     0.074074
                                8:  0.166667  0.833333  0.500000     0.074074
                                9:  0.166667  0.833333  0.833333     0.074074
                               10:  0.500000  0.166667  0.166667     0.074074
                               11:  0.500000  0.166667  0.500000     0.074074
                               12:  0.500000  0.166667  0.833333     0.074074
                               13:  0.500000  0.500000  0.166667     0.074074
                               14:  0.500000  0.500000  0.500000     0.037037

K-points in absolute space:     1:  0.017321  0.017321  0.017321
                                2:  0.017321  0.017321  0.051962
                                3:  0.017321  0.017321  0.086603
                                4:  0.017321  0.051962  0.017321
                                5:  0.017321  0.051962  0.051962
                                6:  0.017321  0.051962  0.086603
                                7:  0.017321  0.086603  0.017321
                                8:  0.017321  0.086603  0.051962
                                9:  0.017321  0.086603  0.086603
                               10:  0.051962  0.017321  0.017321
                               11:  0.051962  0.017321  0.051962
                               12:  0.051962  0.017321  0.086603
                               13:  0.051962  0.051962  0.017321
                               14:  0.051962  0.051962  0.051962

Extra options:
                             Mulliken analysis

--------------------------------------------------------------------------------

***  Geometry step: 0

 iSCC Total electronic   Diff electronic      SCC error    
    1    0.00000000E+00    0.00000000E+00    0.11825597E+00
    2   -0.11075021E+02   -0.11075021E+02    0.84951267E-01
    3   -0.11075182E+02   -0.16166124E-03    0.11399775E-03
    4   -0.11075355E+02   -0.17284763E-03    0.11575194E-06
>> Charges saved for restart in charges.bin

Total Energy:                      -11.0753552174 H         -301.3757 eV
Extrapolated to 0K:                -11.0753552174 H         -301.3757 eV
Total Mermin free energy:          -11.0753552174 H         -301.3757 eV
Force related energy:              -11.0753552174 H         -301.3757 eV


--------------------------------------------------------------------------------
DFTB+ running times                          cpu [s]             wall clock [s]
--------------------------------------------------------------------------------
Pre-SCC initialisation                 +       0.02 (  2.1%)       0.01 (  4.4%)
SCC                                    +       0.89 ( 97.7%)       0.15 ( 95.6%)
--------------------------------------------------------------------------------
Missing                                +       0.00 (  0.2%)       0.00 (  0.0%)
Total                                  =       0.91 (100.0%)       0.16 (100.0%)
--------------------------------------------------------------------------------
