|===============================================================================
|
|  DFTB+ development version (commit: d61a5eeb, base: 22.1)
|
|  Copyright (C) 2006 - 2022  DFTB+ developers group
|
|===============================================================================
|
|  When publishing results obtained with DFTB+, please cite the following
|  reference:
|
|  * DFTB+, a software package for efficient approximate density functional
|    theory based atomistic simulations, J. Chem. Phys. 152, 124101 (2020).
|    [doi: 10.1063/1.5143190]
|
|  You should also cite additional publications crediting the parametrization
|  data you use. Please consult the documentation of the SK-files for the
|  references.
|
|===============================================================================

Reading input file 'dftb_in.hsd'
Parser version: 11

--------------------------------------------------------------------------------
***  Converting input from parser version  3 to parser version 11 ...
WARNING!
-> Keyword moved to Analysis block.
Path: dftbplusinput/Options/MullikenAnalysis
Line: 34-34 (File: dftb_in.hsd)

WARNING!
-> Keyword moved to Analysis block.
Path: dftbplusinput/Options/AtomResolvedEnergies
Line: 36-36 (File: dftb_in.hsd)

WARNING!
-> Keyword moved to Analysis block.
Path: dftbplusinput/Options/CalculateForces
Line: 33-33 (File: dftb_in.hsd)

WARNING!
-> Adding legacy step size for finite difference differentiation
Path: dftbplusinput/Hamiltonian/DFTB/Differentiation

***  Done.

Reading SK-files:
../../slko/Li-Li.skf
../../slko/Li-P.skf
../../slko/Li-S.skf
../../slko/Li-Cl.skf
../../slko/P-P.skf
../../slko/P-S.skf
../../slko/P-Cl.skf
../../slko/S-S.skf
../../slko/S-Cl.skf
../../slko/Cl-Cl.skf
Done.


Processed input in HSD format written to 'dftb_pin.hsd'

Starting initialization...
--------------------------------------------------------------------------------
WARNING!
-> Dipole printed for extended system : value printed is not well defined
OpenMP threads:              12
Chosen random seed:          1576304442
Mode:                        Static calculation
Self consistent charges:     Yes
SCC-tolerance:                 0.100000E-09
Max. scc iterations:                    100
Shell resolved Hubbard:      No
Spin polarisation:           No
Nr. of up electrons:            96.000000
Nr. of down electrons:          96.000000
Periodic boundaries:         Yes
Electronic solver:           Relatively robust
Mixer:                       Broyden mixer
Mixing parameter:                  0.200000
Maximal SCC-cycles:                     100
Nr. of chrg. vec. in memory:            100
Electronic temperature:              0.950045E-03 H      0.258520E-01 eV
Initial charges:             Set automatically (system chrg:   0.000E+00)
Included shells:            Li:  s, p
                             P:  s, p, d
                             S:  s, p, d
                            Cl:  s, p, d
K-points and weights:           1:  0.250000  0.250000  0.250000     0.250000
                                2:  0.250000  0.250000  0.750000     0.250000
                                3:  0.250000  0.750000  0.250000     0.250000
                                4:  0.250000  0.750000  0.750000     0.250000

K-points in absolute space:     1:  0.013366  0.013366  0.013366
                                2:  0.013366  0.013366  0.040097
                                3:  0.013366  0.040097  0.013366
                                4:  0.013366  0.040097  0.040097

Extra options:
                             Mulliken analysis
                             Force calculation
Force type                   original

--------------------------------------------------------------------------------

***  Geometry step: 0

 iSCC Total electronic   Diff electronic      SCC error    
    1    0.00000000E+00    0.00000000E+00    0.73375387E+00
    2   -0.74725694E+02   -0.74725694E+02    0.42764814E+00
    3   -0.74798010E+02   -0.72315744E-01    0.13952281E+00
    4   -0.74827701E+02   -0.29690532E-01    0.63462866E-01
    5   -0.74828277E+02   -0.57666516E-03    0.12650133E-01
    6   -0.74828329E+02   -0.51334651E-04    0.78356769E-02
    7   -0.74828341E+02   -0.12143302E-04    0.23528336E-02
    8   -0.74828343E+02   -0.23548171E-05    0.62758350E-03
    9   -0.74828343E+02   -0.16781027E-06    0.21069549E-03
   10   -0.74828343E+02   -0.45762235E-07    0.78291692E-04
   11   -0.74828343E+02   -0.29055087E-08    0.29957845E-04
   12   -0.74828343E+02   -0.52953908E-09    0.38270316E-05
   13   -0.74828343E+02   -0.90167873E-10    0.12678988E-05
   14   -0.74828343E+02   -0.60111915E-11    0.61907363E-06
   15   -0.74828343E+02   -0.24158453E-12    0.30791625E-06
   16   -0.74828343E+02    0.14210855E-13    0.77341934E-07
   17   -0.74828343E+02   -0.28421709E-13    0.15835081E-07
   18   -0.74828343E+02    0.14210855E-13    0.77801262E-08
   19   -0.74828343E+02    0.00000000E+00    0.24422128E-08
   20   -0.74828343E+02   -0.14210855E-13    0.62079741E-09
>> Charges saved for restart in charges.bin
   21   -0.74828343E+02   -0.14210855E-13    0.13763102E-09
   22   -0.74828343E+02    0.00000000E+00    0.73683282E-10
>> Charges saved for restart in charges.bin

Total Energy:                      -73.6713122600 H        -2004.6984 eV
Extrapolated to 0K:                -73.6713122600 H        -2004.6984 eV
Total Mermin free energy:          -73.6713122600 H        -2004.6984 eV
Force related energy:              -73.6713122600 H        -2004.6984 eV

Volume:                              0.654393E+04 au^3   0.969711E+03 A^3
Pressure:                            0.673073E-03 au     0.198025E+11 Pa

--------------------------------------------------------------------------------
DFTB+ running times                          cpu [s]             wall clock [s]
--------------------------------------------------------------------------------
Pre-SCC initialisation                 +       1.77 (  1.9%)       0.19 (  1.1%)
SCC                                    +      53.81 ( 57.0%)      12.70 ( 75.6%)
Post-SCC processing                    +      38.89 ( 41.2%)       3.91 ( 23.2%)
--------------------------------------------------------------------------------
Missing                                +       0.00 (  0.0%)       0.00 (  0.0%)
Total                                  =      94.47 (100.0%)      16.80 (100.0%)
--------------------------------------------------------------------------------
