|===============================================================================
|
|  DFTB+ development version (commit: d61a5eeb, base: 22.1)
|
|  Copyright (C) 2006 - 2022  DFTB+ developers group
|
|===============================================================================
|
|  When publishing results obtained with DFTB+, please cite the following
|  reference:
|
|  * DFTB+, a software package for efficient approximate density functional
|    theory based atomistic simulations, J. Chem. Phys. 152, 124101 (2020).
|    [doi: 10.1063/1.5143190]
|
|  You should also cite additional publications crediting the parametrization
|  data you use. Please consult the documentation of the SK-files for the
|  references.
|
|===============================================================================

Reading input file 'dftb_in.hsd'
Parser version: 11

--------------------------------------------------------------------------------
***  Converting input from parser version  3 to parser version 11 ...
WARNING!
-> Keyword moved to Analysis block.
Path: dftbplusinput/Options/MullikenAnalysis
Line: 34-34 (File: dftb_in.hsd)

WARNING!
-> Keyword moved to Analysis block.
Path: dftbplusinput/Options/AtomResolvedEnergies
Line: 36-36 (File: dftb_in.hsd)

WARNING!
-> Keyword moved to Analysis block.
Path: dftbplusinput/Options/CalculateForces
Line: 33-33 (File: dftb_in.hsd)

WARNING!
-> Adding legacy step size for finite difference differentiation
Path: dftbplusinput/Hamiltonian/DFTB/Differentiation

***  Done.

Reading SK-files:
../../slko/Li-Li.skf
../../slko/Li-P.skf
../../slko/Li-S.skf
../../slko/Li-Cl.skf
../../slko/P-P.skf
../../slko/P-S.skf
../../slko/P-Cl.skf
../../slko/S-S.skf
../../slko/S-Cl.skf
../../slko/Cl-Cl.skf
Done.


Processed input in HSD format written to 'dftb_pin.hsd'

Starting initialization...
--------------------------------------------------------------------------------
WARNING!
-> Dipole printed for extended system : value printed is not well defined
OpenMP threads:              12
Chosen random seed:          1576235652
Mode:                        Static calculation
Self consistent charges:     Yes
SCC-tolerance:                 0.100000E-09
Max. scc iterations:                    100
Shell resolved Hubbard:      No
Spin polarisation:           No
Nr. of up electrons:            96.000000
Nr. of down electrons:          96.000000
Periodic boundaries:         Yes
Electronic solver:           Relatively robust
Mixer:                       Broyden mixer
Mixing parameter:                  0.200000
Maximal SCC-cycles:                     100
Nr. of chrg. vec. in memory:            100
Electronic temperature:              0.950045E-03 H      0.258520E-01 eV
Initial charges:             Set automatically (system chrg:   0.000E+00)
Included shells:            Li:  s, p
                             P:  s, p, d
                             S:  s, p, d
                            Cl:  s, p, d
K-points and weights:           1:  0.250000  0.250000  0.250000     0.250000
                                2:  0.250000  0.250000  0.750000     0.250000
                                3:  0.250000  0.750000  0.250000     0.250000
                                4:  0.250000  0.750000  0.750000     0.250000

K-points in absolute space:     1:  0.013366  0.013366  0.013366
                                2:  0.013366  0.013366  0.040097
                                3:  0.013366  0.040097  0.013366
                                4:  0.013366  0.040097  0.040097

Extra options:
                             Mulliken analysis
                             Force calculation
Force type                   original

--------------------------------------------------------------------------------

***  Geometry step: 0

 iSCC Total electronic   Diff electronic      SCC error    
    1    0.00000000E+00    0.00000000E+00    0.73415706E+00
    2   -0.74729169E+02   -0.74729169E+02    0.42840926E+00
    3   -0.74805591E+02   -0.76421795E-01    0.14749013E+00
    4   -0.74835819E+02   -0.30228121E-01    0.74079080E-01
    5   -0.74836432E+02   -0.61242898E-03    0.12308853E-01
    6   -0.74836497E+02   -0.65077157E-04    0.89063275E-02
    7   -0.74836510E+02   -0.13301314E-04    0.23880692E-02
    8   -0.74836513E+02   -0.28888819E-05    0.67236639E-03
    9   -0.74836513E+02   -0.19086681E-06    0.20932305E-03
   10   -0.74836513E+02   -0.51624312E-07    0.80899357E-04
   11   -0.74836513E+02   -0.28445157E-08    0.30811708E-04
   12   -0.74836513E+02   -0.54900795E-09    0.47667247E-05
   13   -0.74836513E+02   -0.99632302E-10    0.13599649E-05
   14   -0.74836513E+02   -0.34816594E-11    0.62680542E-06
   15   -0.74836513E+02   -0.19895197E-12    0.30224136E-06
   16   -0.74836513E+02   -0.28421709E-13    0.10005265E-06
   17   -0.74836513E+02   -0.28421709E-13    0.17894693E-07
   18   -0.74836513E+02    0.14210855E-13    0.84908428E-08
   19   -0.74836513E+02    0.00000000E+00    0.20804228E-08
   20   -0.74836513E+02   -0.28421709E-13    0.55118632E-09
>> Charges saved for restart in charges.bin
   21   -0.74836513E+02    0.14210855E-13    0.14896007E-09
   22   -0.74836513E+02    0.00000000E+00    0.76597284E-10
>> Charges saved for restart in charges.bin

Total Energy:                      -73.3612250792 H        -1996.2605 eV
Extrapolated to 0K:                -73.3612250792 H        -1996.2605 eV
Total Mermin free energy:          -73.3612250792 H        -1996.2605 eV
Force related energy:              -73.3612250792 H        -1996.2605 eV

Volume:                              0.654393E+04 au^3   0.969711E+03 A^3
Pressure:                            0.809401E-03 au     0.238134E+11 Pa

--------------------------------------------------------------------------------
DFTB+ running times                          cpu [s]             wall clock [s]
--------------------------------------------------------------------------------
Pre-SCC initialisation                 +       1.82 (  1.9%)       0.20 (  1.1%)
SCC                                    +      54.20 ( 56.4%)      13.28 ( 75.7%)
Post-SCC processing                    +      40.00 ( 41.7%)       4.07 ( 23.2%)
--------------------------------------------------------------------------------
Missing                                +       0.00 (  0.0%)       0.00 (  0.0%)
Total                                  =      96.02 (100.0%)      17.55 (100.0%)
--------------------------------------------------------------------------------
