|===============================================================================
|
|  DFTB+ development version (commit: d61a5eeb, base: 22.1)
|
|  Copyright (C) 2006 - 2022  DFTB+ developers group
|
|===============================================================================
|
|  When publishing results obtained with DFTB+, please cite the following
|  reference:
|
|  * DFTB+, a software package for efficient approximate density functional
|    theory based atomistic simulations, J. Chem. Phys. 152, 124101 (2020).
|    [doi: 10.1063/1.5143190]
|
|  You should also cite additional publications crediting the parametrization
|  data you use. Please consult the documentation of the SK-files for the
|  references.
|
|===============================================================================

Reading input file 'dftb_in.hsd'
Parser version: 11

--------------------------------------------------------------------------------
***  Converting input from parser version  3 to parser version 11 ...
WARNING!
-> Keyword moved to Analysis block.
Path: dftbplusinput/Options/MullikenAnalysis
Line: 34-34 (File: dftb_in.hsd)

WARNING!
-> Keyword moved to Analysis block.
Path: dftbplusinput/Options/AtomResolvedEnergies
Line: 36-36 (File: dftb_in.hsd)

WARNING!
-> Keyword moved to Analysis block.
Path: dftbplusinput/Options/CalculateForces
Line: 33-33 (File: dftb_in.hsd)

WARNING!
-> Adding legacy step size for finite difference differentiation
Path: dftbplusinput/Hamiltonian/DFTB/Differentiation

***  Done.

Reading SK-files:
../../slko/Li-Li.skf
../../slko/Li-P.skf
../../slko/Li-S.skf
../../slko/Li-Cl.skf
../../slko/P-P.skf
../../slko/P-S.skf
../../slko/P-Cl.skf
../../slko/S-S.skf
../../slko/S-Cl.skf
../../slko/Cl-Cl.skf
Done.


Processed input in HSD format written to 'dftb_pin.hsd'

Starting initialization...
--------------------------------------------------------------------------------
WARNING!
-> Dipole printed for extended system : value printed is not well defined
OpenMP threads:              12
Chosen random seed:          1576337567
Mode:                        Static calculation
Self consistent charges:     Yes
SCC-tolerance:                 0.100000E-09
Max. scc iterations:                    100
Shell resolved Hubbard:      No
Spin polarisation:           No
Nr. of up electrons:            96.000000
Nr. of down electrons:          96.000000
Periodic boundaries:         Yes
Electronic solver:           Relatively robust
Mixer:                       Broyden mixer
Mixing parameter:                  0.200000
Maximal SCC-cycles:                     100
Nr. of chrg. vec. in memory:            100
Electronic temperature:              0.950045E-03 H      0.258520E-01 eV
Initial charges:             Set automatically (system chrg:   0.000E+00)
Included shells:            Li:  s, p
                             P:  s, p, d
                             S:  s, p, d
                            Cl:  s, p, d
K-points and weights:           1:  0.250000  0.250000  0.250000     0.250000
                                2:  0.250000  0.250000  0.750000     0.250000
                                3:  0.250000  0.750000  0.250000     0.250000
                                4:  0.250000  0.750000  0.750000     0.250000

K-points in absolute space:     1:  0.013366  0.013366  0.013366
                                2:  0.013366  0.013366  0.040097
                                3:  0.013366  0.040097  0.013366
                                4:  0.013366  0.040097  0.040097

Extra options:
                             Mulliken analysis
                             Force calculation
Force type                   original

--------------------------------------------------------------------------------

***  Geometry step: 0

 iSCC Total electronic   Diff electronic      SCC error    
    1    0.00000000E+00    0.00000000E+00    0.73338359E+00
    2   -0.74773493E+02   -0.74773493E+02    0.42001417E+00
    3   -0.74836356E+02   -0.62863573E-01    0.43913668E-01
    4   -0.74863200E+02   -0.26843938E-01    0.20300788E-01
    5   -0.74863618E+02   -0.41803272E-03    0.75453222E-02
    6   -0.74863631E+02   -0.12919717E-04    0.24786640E-02
    7   -0.74863639E+02   -0.76090643E-05    0.11149406E-02
    8   -0.74863640E+02   -0.80104849E-06    0.43718730E-03
    9   -0.74863640E+02   -0.39970288E-07    0.12435764E-03
   10   -0.74863640E+02   -0.11197713E-07    0.36826010E-04
   11   -0.74863640E+02   -0.16117525E-08    0.17915160E-04
   12   -0.74863640E+02   -0.17490720E-09    0.27499315E-05
   13   -0.74863640E+02   -0.96065378E-11    0.58558868E-06
   14   -0.74863640E+02   -0.98054898E-12    0.24492780E-06
   15   -0.74863640E+02   -0.71054274E-13    0.18758102E-06
   16   -0.74863640E+02    0.00000000E+00    0.41974541E-07
   17   -0.74863640E+02    0.00000000E+00    0.73263067E-08
   18   -0.74863640E+02    0.00000000E+00    0.15272638E-08
   19   -0.74863640E+02   -0.14210855E-13    0.10303047E-08
   20   -0.74863640E+02    0.28421709E-13    0.38415271E-09
>> Charges saved for restart in charges.bin
   21   -0.74863640E+02   -0.14210855E-13    0.45602633E-10
>> Charges saved for restart in charges.bin

Total Energy:                      -74.0208525116 H        -2014.2099 eV
Extrapolated to 0K:                -74.0208525116 H        -2014.2099 eV
Total Mermin free energy:          -74.0208525116 H        -2014.2099 eV
Force related energy:              -74.0208525116 H        -2014.2099 eV

Volume:                              0.654393E+04 au^3   0.969711E+03 A^3
Pressure:                            0.541018E-03 au     0.159173E+11 Pa

--------------------------------------------------------------------------------
DFTB+ running times                          cpu [s]             wall clock [s]
--------------------------------------------------------------------------------
Pre-SCC initialisation                 +       1.57 (  1.7%)       0.17 (  1.1%)
SCC                                    +      51.65 ( 55.7%)      12.17 ( 74.5%)
Post-SCC processing                    +      39.45 ( 42.6%)       3.99 ( 24.4%)
Post-geometry optimisation             +       0.03 (  0.0%)       0.00 (  0.0%)
--------------------------------------------------------------------------------
Missing                                +       0.00 (  0.0%)       0.00 (  0.0%)
Total                                  =      92.69 (100.0%)      16.33 (100.0%)
--------------------------------------------------------------------------------
