|===============================================================================
|
|  DFTB+ development version (commit: d61a5eeb, base: 22.1)
|
|  Copyright (C) 2006 - 2022  DFTB+ developers group
|
|===============================================================================
|
|  When publishing results obtained with DFTB+, please cite the following
|  reference:
|
|  * DFTB+, a software package for efficient approximate density functional
|    theory based atomistic simulations, J. Chem. Phys. 152, 124101 (2020).
|    [doi: 10.1063/1.5143190]
|
|  You should also cite additional publications crediting the parametrization
|  data you use. Please consult the documentation of the SK-files for the
|  references.
|
|===============================================================================

Reading input file 'dftb_in.hsd'
Parser version: 11

--------------------------------------------------------------------------------
***  Converting input from parser version  3 to parser version 11 ...
WARNING!
-> Keyword moved to Analysis block.
Path: dftbplusinput/Options/MullikenAnalysis
Line: 34-34 (File: dftb_in.hsd)

WARNING!
-> Keyword moved to Analysis block.
Path: dftbplusinput/Options/AtomResolvedEnergies
Line: 36-36 (File: dftb_in.hsd)

WARNING!
-> Keyword moved to Analysis block.
Path: dftbplusinput/Options/CalculateForces
Line: 33-33 (File: dftb_in.hsd)

WARNING!
-> Adding legacy step size for finite difference differentiation
Path: dftbplusinput/Hamiltonian/DFTB/Differentiation

***  Done.

Reading SK-files:
../../slko/Li-Li.skf
../../slko/Li-P.skf
../../slko/Li-S.skf
../../slko/Li-Cl.skf
../../slko/P-P.skf
../../slko/P-S.skf
../../slko/P-Cl.skf
../../slko/S-S.skf
../../slko/S-Cl.skf
../../slko/Cl-Cl.skf
Done.


Processed input in HSD format written to 'dftb_pin.hsd'

Starting initialization...
--------------------------------------------------------------------------------
WARNING!
-> Dipole printed for extended system : value printed is not well defined
OpenMP threads:              12
Chosen random seed:          1576253258
Mode:                        Static calculation
Self consistent charges:     Yes
SCC-tolerance:                 0.100000E-09
Max. scc iterations:                    100
Shell resolved Hubbard:      No
Spin polarisation:           No
Nr. of up electrons:            96.000000
Nr. of down electrons:          96.000000
Periodic boundaries:         Yes
Electronic solver:           Relatively robust
Mixer:                       Broyden mixer
Mixing parameter:                  0.200000
Maximal SCC-cycles:                     100
Nr. of chrg. vec. in memory:            100
Electronic temperature:              0.950045E-03 H      0.258520E-01 eV
Initial charges:             Set automatically (system chrg:   0.000E+00)
Included shells:            Li:  s, p
                             P:  s, p, d
                             S:  s, p, d
                            Cl:  s, p, d
K-points and weights:           1:  0.250000  0.250000  0.250000     0.250000
                                2:  0.250000  0.250000  0.750000     0.250000
                                3:  0.250000  0.750000  0.250000     0.250000
                                4:  0.250000  0.750000  0.750000     0.250000

K-points in absolute space:     1:  0.013366  0.013366  0.013366
                                2:  0.013366  0.013366  0.040097
                                3:  0.013366  0.040097  0.013366
                                4:  0.013366  0.040097  0.040097

Extra options:
                             Mulliken analysis
                             Force calculation
Force type                   original

--------------------------------------------------------------------------------

***  Geometry step: 0

 iSCC Total electronic   Diff electronic      SCC error    
    1    0.00000000E+00    0.00000000E+00    0.73366097E+00
    2   -0.74715028E+02   -0.74715028E+02    0.42414119E+00
    3   -0.74801683E+02   -0.86654737E-01    0.91410590E-01
    4   -0.74832169E+02   -0.30486198E-01    0.46091097E-01
    5   -0.74833055E+02   -0.88652084E-03    0.12083702E-01
    6   -0.74833127E+02   -0.71852166E-04    0.76963548E-02
    7   -0.74833138E+02   -0.10697937E-04    0.15157055E-02
    8   -0.74833140E+02   -0.26263523E-05    0.52256093E-03
    9   -0.74833141E+02   -0.12816386E-06    0.16771581E-03
   10   -0.74833141E+02   -0.24464228E-07    0.49890096E-04
   11   -0.74833141E+02   -0.48635513E-08    0.24293472E-04
   12   -0.74833141E+02   -0.40056136E-09    0.51691730E-05
   13   -0.74833141E+02   -0.10004442E-10    0.10630091E-05
   14   -0.74833141E+02   -0.13230306E-10    0.62046485E-06
   15   -0.74833141E+02   -0.19895197E-12    0.27285142E-06
   16   -0.74833141E+02    0.00000000E+00    0.42692335E-07
   17   -0.74833141E+02   -0.42632564E-13    0.14101989E-07
   18   -0.74833141E+02    0.14210855E-13    0.54700522E-08
   19   -0.74833141E+02    0.00000000E+00    0.17102353E-08
   20   -0.74833141E+02   -0.14210855E-13    0.36412207E-09
>> Charges saved for restart in charges.bin
   21   -0.74833141E+02    0.00000000E+00    0.95215391E-10
>> Charges saved for restart in charges.bin

Total Energy:                      -73.8440603657 H        -2009.3991 eV
Extrapolated to 0K:                -73.8440603657 H        -2009.3991 eV
Total Mermin free energy:          -73.8440603657 H        -2009.3991 eV
Force related energy:              -73.8440603657 H        -2009.3991 eV

Volume:                              0.654393E+04 au^3   0.969711E+03 A^3
Pressure:                            0.602866E-03 au     0.177369E+11 Pa

--------------------------------------------------------------------------------
DFTB+ running times                          cpu [s]             wall clock [s]
--------------------------------------------------------------------------------
Pre-SCC initialisation                 +       1.81 (  2.0%)       0.20 (  1.2%)
SCC                                    +      51.64 ( 56.0%)      12.17 ( 74.5%)
Post-SCC processing                    +      38.74 ( 42.0%)       3.96 ( 24.3%)
--------------------------------------------------------------------------------
Missing                                +       0.00 (  0.0%)       0.00 (  0.0%)
Total                                  =      92.19 (100.0%)      16.33 (100.0%)
--------------------------------------------------------------------------------
