|===============================================================================
|
|  DFTB+ development version (commit: d61a5eeb, base: 22.1)
|
|  Copyright (C) 2006 - 2022  DFTB+ developers group
|
|===============================================================================
|
|  When publishing results obtained with DFTB+, please cite the following
|  reference:
|
|  * DFTB+, a software package for efficient approximate density functional
|    theory based atomistic simulations, J. Chem. Phys. 152, 124101 (2020).
|    [doi: 10.1063/1.5143190]
|
|  You should also cite additional publications crediting the parametrization
|  data you use. Please consult the documentation of the SK-files for the
|  references.
|
|===============================================================================

Reading input file 'dftb_in.hsd'
Parser version: 11

--------------------------------------------------------------------------------
***  Converting input from parser version  3 to parser version 11 ...
WARNING!
-> Keyword moved to Analysis block.
Path: dftbplusinput/Options/MullikenAnalysis
Line: 34-34 (File: dftb_in.hsd)

WARNING!
-> Keyword moved to Analysis block.
Path: dftbplusinput/Options/AtomResolvedEnergies
Line: 36-36 (File: dftb_in.hsd)

WARNING!
-> Keyword moved to Analysis block.
Path: dftbplusinput/Options/CalculateForces
Line: 33-33 (File: dftb_in.hsd)

WARNING!
-> Adding legacy step size for finite difference differentiation
Path: dftbplusinput/Hamiltonian/DFTB/Differentiation

***  Done.

Reading SK-files:
../../slko/Li-Li.skf
../../slko/Li-P.skf
../../slko/Li-S.skf
../../slko/Li-Cl.skf
../../slko/P-P.skf
../../slko/P-S.skf
../../slko/P-Cl.skf
../../slko/S-S.skf
../../slko/S-Cl.skf
../../slko/Cl-Cl.skf
Done.


Processed input in HSD format written to 'dftb_pin.hsd'

Starting initialization...
--------------------------------------------------------------------------------
WARNING!
-> Dipole printed for extended system : value printed is not well defined
OpenMP threads:              12
Chosen random seed:          1576286301
Mode:                        Static calculation
Self consistent charges:     Yes
SCC-tolerance:                 0.100000E-09
Max. scc iterations:                    100
Shell resolved Hubbard:      No
Spin polarisation:           No
Nr. of up electrons:            96.000000
Nr. of down electrons:          96.000000
Periodic boundaries:         Yes
Electronic solver:           Relatively robust
Mixer:                       Broyden mixer
Mixing parameter:                  0.200000
Maximal SCC-cycles:                     100
Nr. of chrg. vec. in memory:            100
Electronic temperature:              0.950045E-03 H      0.258520E-01 eV
Initial charges:             Set automatically (system chrg:   0.000E+00)
Included shells:            Li:  s, p
                             P:  s, p, d
                             S:  s, p, d
                            Cl:  s, p, d
K-points and weights:           1:  0.250000  0.250000  0.250000     0.250000
                                2:  0.250000  0.250000  0.750000     0.250000
                                3:  0.250000  0.750000  0.250000     0.250000
                                4:  0.250000  0.750000  0.750000     0.250000

K-points in absolute space:     1:  0.013366  0.013366  0.013366
                                2:  0.013366  0.013366  0.040097
                                3:  0.013366  0.040097  0.013366
                                4:  0.013366  0.040097  0.040097

Extra options:
                             Mulliken analysis
                             Force calculation
Force type                   original

--------------------------------------------------------------------------------

***  Geometry step: 0

 iSCC Total electronic   Diff electronic      SCC error    
    1    0.00000000E+00    0.00000000E+00    0.73340256E+00
    2   -0.74753778E+02   -0.74753778E+02    0.42466481E+00
    3   -0.74821645E+02   -0.67867221E-01    0.71591443E-01
    4   -0.74850410E+02   -0.28765589E-01    0.30522726E-01
    5   -0.74850850E+02   -0.43926707E-03    0.97327450E-02
    6   -0.74850867E+02   -0.17511916E-04    0.32503350E-02
    7   -0.74850877E+02   -0.10216451E-04    0.15266172E-02
    8   -0.74850878E+02   -0.96776657E-06    0.57369592E-03
    9   -0.74850878E+02   -0.64406052E-07    0.15514381E-03
   10   -0.74850878E+02   -0.16809153E-07    0.55750626E-04
   11   -0.74850878E+02   -0.22166802E-08    0.25312301E-04
   12   -0.74850878E+02   -0.20497737E-09    0.27573022E-05
   13   -0.74850878E+02   -0.26986413E-10    0.67669971E-06
   14   -0.74850878E+02   -0.14495072E-11    0.42529157E-06
   15   -0.74850878E+02   -0.85265128E-13    0.15390947E-06
   16   -0.74850878E+02    0.14210855E-13    0.35542413E-07
   17   -0.74850878E+02    0.14210855E-13    0.90375849E-08
   18   -0.74850878E+02   -0.14210855E-13    0.32071739E-08
   19   -0.74850878E+02   -0.14210855E-13    0.14518204E-08
   20   -0.74850878E+02    0.28421709E-13    0.46721482E-09
>> Charges saved for restart in charges.bin
   21   -0.74850878E+02    0.00000000E+00    0.63634875E-10
>> Charges saved for restart in charges.bin

Total Energy:                      -73.8482286808 H        -2009.5125 eV
Extrapolated to 0K:                -73.8482286808 H        -2009.5125 eV
Total Mermin free energy:          -73.8482286808 H        -2009.5125 eV
Force related energy:              -73.8482286808 H        -2009.5125 eV

Volume:                              0.654393E+04 au^3   0.969711E+03 A^3
Pressure:                            0.621637E-03 au     0.182892E+11 Pa

--------------------------------------------------------------------------------
DFTB+ running times                          cpu [s]             wall clock [s]
--------------------------------------------------------------------------------
Pre-SCC initialisation                 +       1.59 (  1.8%)       0.20 (  1.1%)
SCC                                    +      45.63 ( 52.7%)      13.95 ( 77.1%)
Post-SCC processing                    +      39.27 ( 45.4%)       3.95 ( 21.8%)
Post-geometry optimisation             +       0.02 (  0.0%)       0.00 (  0.0%)
--------------------------------------------------------------------------------
Missing                                +       0.00 (  0.0%)       0.00 (  0.0%)
Total                                  =      86.51 (100.0%)      18.09 (100.0%)
--------------------------------------------------------------------------------
