|===============================================================================
|
|  DFTB+ development version (commit: d61a5eeb, base: 22.1)
|
|  Copyright (C) 2006 - 2022  DFTB+ developers group
|
|===============================================================================
|
|  When publishing results obtained with DFTB+, please cite the following
|  reference:
|
|  * DFTB+, a software package for efficient approximate density functional
|    theory based atomistic simulations, J. Chem. Phys. 152, 124101 (2020).
|    [doi: 10.1063/1.5143190]
|
|  You should also cite additional publications crediting the parametrization
|  data you use. Please consult the documentation of the SK-files for the
|  references.
|
|===============================================================================

Reading input file 'dftb_in.hsd'
Parser version: 11

--------------------------------------------------------------------------------
***  Converting input from parser version  3 to parser version 11 ...
WARNING!
-> Keyword moved to Analysis block.
Path: dftbplusinput/Options/MullikenAnalysis
Line: 34-34 (File: dftb_in.hsd)

WARNING!
-> Keyword moved to Analysis block.
Path: dftbplusinput/Options/AtomResolvedEnergies
Line: 36-36 (File: dftb_in.hsd)

WARNING!
-> Keyword moved to Analysis block.
Path: dftbplusinput/Options/CalculateForces
Line: 33-33 (File: dftb_in.hsd)

WARNING!
-> Adding legacy step size for finite difference differentiation
Path: dftbplusinput/Hamiltonian/DFTB/Differentiation

***  Done.

Reading SK-files:
../../slko/Li-Li.skf
../../slko/Li-P.skf
../../slko/Li-S.skf
../../slko/Li-Cl.skf
../../slko/P-P.skf
../../slko/P-S.skf
../../slko/P-Cl.skf
../../slko/S-S.skf
../../slko/S-Cl.skf
../../slko/Cl-Cl.skf
Done.


Processed input in HSD format written to 'dftb_pin.hsd'

Starting initialization...
--------------------------------------------------------------------------------
WARNING!
-> Dipole printed for extended system : value printed is not well defined
OpenMP threads:              12
Chosen random seed:          1576219543
Mode:                        Static calculation
Self consistent charges:     Yes
SCC-tolerance:                 0.100000E-09
Max. scc iterations:                    100
Shell resolved Hubbard:      No
Spin polarisation:           No
Nr. of up electrons:            96.000000
Nr. of down electrons:          96.000000
Periodic boundaries:         Yes
Electronic solver:           Relatively robust
Mixer:                       Broyden mixer
Mixing parameter:                  0.200000
Maximal SCC-cycles:                     100
Nr. of chrg. vec. in memory:            100
Electronic temperature:              0.950045E-03 H      0.258520E-01 eV
Initial charges:             Set automatically (system chrg:   0.000E+00)
Included shells:            Li:  s, p
                             P:  s, p, d
                             S:  s, p, d
                            Cl:  s, p, d
K-points and weights:           1:  0.250000  0.250000  0.250000     0.250000
                                2:  0.250000  0.250000  0.750000     0.250000
                                3:  0.250000  0.750000  0.250000     0.250000
                                4:  0.250000  0.750000  0.750000     0.250000

K-points in absolute space:     1:  0.013366  0.013366  0.013366
                                2:  0.013366  0.013366  0.040097
                                3:  0.013366  0.040097  0.013366
                                4:  0.013366  0.040097  0.040097

Extra options:
                             Mulliken analysis
                             Force calculation
Force type                   original

--------------------------------------------------------------------------------

***  Geometry step: 0

 iSCC Total electronic   Diff electronic      SCC error    
    1    0.00000000E+00    0.00000000E+00    0.73342733E+00
    2   -0.74774522E+02   -0.74774522E+02    0.42140661E+00
    3   -0.74840014E+02   -0.65491529E-01    0.48776652E-01
    4   -0.74867811E+02   -0.27797040E-01    0.22093979E-01
    5   -0.74868221E+02   -0.40992859E-03    0.78757895E-02
    6   -0.74868234E+02   -0.13281366E-04    0.30651497E-02
    7   -0.74868242E+02   -0.80356847E-05    0.11559683E-02
    8   -0.74868243E+02   -0.83474428E-06    0.45079030E-03
    9   -0.74868243E+02   -0.44521528E-07    0.12406197E-03
   10   -0.74868243E+02   -0.13772720E-07    0.39293679E-04
   11   -0.74868243E+02   -0.19975772E-08    0.18656846E-04
   12   -0.74868243E+02   -0.18809487E-09    0.20918364E-05
   13   -0.74868243E+02   -0.97202246E-11    0.60600482E-06
   14   -0.74868243E+02   -0.71054274E-12    0.26695322E-06
   15   -0.74868243E+02   -0.28421709E-13    0.13489453E-06
   16   -0.74868243E+02    0.00000000E+00    0.31433252E-07
   17   -0.74868243E+02    0.00000000E+00    0.52936695E-08
   18   -0.74868243E+02    0.00000000E+00    0.17535917E-08
   19   -0.74868243E+02   -0.14210855E-13    0.10551072E-08
   20   -0.74868243E+02    0.14210855E-13    0.42043724E-09
>> Charges saved for restart in charges.bin
   21   -0.74868243E+02   -0.28421709E-13    0.31037395E-10
>> Charges saved for restart in charges.bin

Total Energy:                      -73.9794847656 H        -2013.0842 eV
Extrapolated to 0K:                -73.9794847656 H        -2013.0842 eV
Total Mermin free energy:          -73.9794847656 H        -2013.0842 eV
Force related energy:              -73.9794847656 H        -2013.0842 eV

Volume:                              0.654393E+04 au^3   0.969711E+03 A^3
Pressure:                            0.572144E-03 au     0.168331E+11 Pa

--------------------------------------------------------------------------------
DFTB+ running times                          cpu [s]             wall clock [s]
--------------------------------------------------------------------------------
Pre-SCC initialisation                 +       1.61 (  1.8%)       0.18 (  1.1%)
SCC                                    +      49.07 ( 54.6%)      11.93 ( 74.3%)
Post-SCC processing                    +      39.17 ( 43.6%)       3.95 ( 24.6%)
--------------------------------------------------------------------------------
Missing                                +       0.00 (  0.0%)       0.00 (  0.0%)
Total                                  =      89.86 (100.0%)      16.06 (100.0%)
--------------------------------------------------------------------------------
